----- GAMESS execution script 'rungms' -----
This job is running on host chemcompute-node-0.novalocal
under operating system Linux at Sun Nov 7 16:36:32 UTC 2021
SLURM has assigned the following compute nodes to this run:
chemcompute-node-0
Available scratch disk space (Kbyte units) at beginning of the job is
Filesystem     1K-blocks     Used Available Use% Mounted on
/dev/sda1       62903276 16586536  46316740  27% /
GAMESS temporary binary files will be written to /scratch/302676
GAMESS supplementary output files will be written to /data/slurm/337752
Copying input file 337752.inp to your run's scratch directory...
The generated host list is
chemcompute-node-0.novalocal

 Distributed Data Interface kickoff program.
 Initiating 1 compute processes on 1 nodes to run the following command:
 /data/gamess-2019R1-ddi/gamess.00.x 337752 

          ******************************************************
          *         GAMESS VERSION = 30 JUN 2019 (R1)          *
          *             FROM IOWA STATE UNIVERSITY             *
          * M.W.SCHMIDT, K.K.BALDRIDGE, J.A.BOATZ, S.T.ELBERT, *
          *   M.S.GORDON, J.H.JENSEN, S.KOSEKI, N.MATSUNAGA,   *
          *          K.A.NGUYEN, S.J.SU, T.L.WINDUS,           *
          *       TOGETHER WITH M.DUPUIS, J.A.MONTGOMERY       *
          *         J.COMPUT.CHEM.  14, 1347-1363(1993)        *
          **************** 64 BIT LINUX VERSION ****************

  SINCE 1993, STUDENTS AND POSTDOCS WORKING AT IOWA STATE UNIVERSITY
  AND ALSO IN THEIR VARIOUS JOBS AFTER LEAVING ISU HAVE MADE IMPORTANT
  CONTRIBUTIONS TO THE CODE:
     IVANA ADAMOVIC, CHRISTINE AIKENS, YURI ALEXEEV, POOJA ARORA,
     ANDREY ASADCHEV, ROB BELL, PRADIPTA BANDYOPADHYAY, JONATHAN BENTZ,
     COLLEEN BERTONI, BRETT BODE, KURT BRORSEN, CALEB CARLIN, GALINA CHABAN,
     WEI CHEN, CHEOL HO CHOI, PAUL DAY, ALBERT DEFUSCO, NUWAN DESILVA,
     TIM DUDLEY, DMITRI FEDOROV, ALEX FINDLATER, GRAHAM FLETCHER, 
     MARK FREITAG, KURT GLAESEMANN, ANASTASIA GUNINA,
     DAN KEMP, GRANT MERRILL, NORIYUKI MINEZAWA, JONATHAN MULLIN,
     TAKESHI NAGATA, SEAN NEDD, HEATHER NETZLOFF, BOSILJKA NJEGIC, RYAN OLSON,
     MIKE PAK, BUU PHAM,
     SPENCER PRUITT, LUKE ROSKOP, JIM SHOEMAKER, LYUDMILA SLIPCHENKO,
     TONY SMITH, SAROM SOK LEANG, JIE SONG, TETSUYA TAKETSUGU, SIMON WEBB,
     PENG XU, SOOHAENG YOO, FEDERICO ZAHARIEV

  ADDITIONAL CODE HAS BEEN PROVIDED BY COLLABORATORS IN OTHER GROUPS:
     IOWA STATE UNIVERSITY:
          JOE IVANIC, AARON WEST, LAIMUTIS BYTAUTAS, KLAUS RUEDENBERG
     UNIVERSITY OF TOKYO: KIMIHIKO HIRAO, TAKAHITO NAKAJIMA,
          TAKAO TSUNEDA, MUNEAKI KAMIYA, SUSUMU YANAGISAWA,
          KIYOSHI YAGI, MAHITO CHIBA, SEIKEN TOKURA, NAOAKI KAWAKAMI
     UNIVERSITY OF AARHUS: FRANK JENSEN
     UNIVERSITY OF IOWA: VISVALDAS KAIRYS, HUI LI
     NATIONAL INST. OF STANDARDS AND TECHNOLOGY: WALT STEVENS, DAVID GARMER
     UNIVERSITY OF PISA: BENEDETTA MENNUCCI, JACOPO TOMASI
     UNIVERSITY OF MEMPHIS: HENRY KURTZ, PRAKASHAN KORAMBATH
     UNIVERSITY OF ALBERTA: TOBY ZENG, MARIUSZ KLOBUKOWSKI
     UNIVERSITY OF NEW ENGLAND: MARK SPACKMAN
     MIE UNIVERSITY: HIROAKI UMEDA
     NAT. INST. OF ADVANCED INDUSTRIAL SCIENCE AND TECHNOLOGY: KAZUO KITAURA
     MICHIGAN STATE UNIVERSITY:
          KAROL KOWALSKI, MARTA WLOCH, JEFFREY GOUR, JESSE LUTZ,
          WEI LI, JUN SHEN, J. EMILIANO DEUSTUA, PIOTR PIECUCH
     UNIVERSITY OF MINNESOTA:
          YINAN SHU
     UNIVERSITY OF SILESIA: MONIKA MUSIAL, STANISLAW KUCHARSKI
     FACULTES UNIVERSITAIRES NOTRE-DAME DE LA PAIX:
          OLIVIER QUINET, BENOIT CHAMPAGNE
     UNIVERSITY OF CALIFORNIA - SANTA BARBARA: BERNARD KIRTMAN
     INSTITUTE FOR MOLECULAR SCIENCE:
          KAZUYA ISHIMURA, MICHIO KATOUDA, AND SHIGERU NAGASE
     UNIVERSITY OF NOTRE DAME: ANNA POMOGAEVA, DAN CHIPMAN
     KYUSHU UNIVERSITY:
          HARUYUKI NAKANO,
          FENG LONG GU, JACEK KORCHOWIEC, MARCIN MAKOWSKI, AND YURIKO AOKI,
          HIROTOSHI MORI AND EISAKU MIYOSHI
     PENNSYLVANIA STATE UNIVERSITY:
          TZVETELIN IORDANOV, CHET SWALINA, JONATHAN SKONE,
          SHARON HAMMES-SCHIFFER
     WASEDA UNIVERSITY:
          MASATO KOBAYASHI, TOMOKO AKAMA, TSUGUKI TOUMA,
          TAKESHI YOSHIKAWA, YASUHIRO IKABATA, JUNJI SEINO,
          YUYA NAKAJIMA, HIROMI NAKAI
     NANJING UNIVERSITY: SHUHUA LI
     UNIVERSITY OF NEBRASKA:
          PEIFENG SU, DEJUN SI, NANDUN THELLAMUREGE, YALI WANG, HUI LI
     UNIVERSITY OF ZURICH: ROBERTO PEVERATI, KIM BALDRIDGE
     N. COPERNICUS UNIVERSITY AND JACKSON STATE UNIVERSITY:
          MARIA BARYSZ
     UNIVERSITY OF COPENHAGEN: Jimmy Kromann, CASPER STEINMANN
     TOKYO INSTITUTE OF TECHNOLOGY: HIROYA NAKATA
     NAGOYA UNIVERSITY: YOSHIO NISHIMOTO, STEPHAN IRLE
     MOSCOW STATE UNIVERSITY: VLADIMIR MIRONOV
     A.N.NESMEYANOV INSTITUTE OF ORGANOELEMENT COMPOUNDS OF RUSSIAN ACADEMY OF SCIENCES:
          IGOR S. GERASIMOV

 EXECUTION OF GAMESS BEGUN Sun Nov  7 16:36:32 2021

            ECHO OF THE FIRST FEW INPUT CARDS -
 INPUT CARD>!File created by the GAMESS Input Deck Generator Plugin for Avogadro            
 INPUT CARD> $BASIS GBASIS=STO NGAUSS=3 $END                                                
 INPUT CARD> $CONTRL SCFTYP=RHF RUNTYP=SADPOINT NZVAR=1 mult=1  ICHARG=0 $END               
 INPUT CARD> $STATPT hssend=.t. OPTTOL=0.0005 NSTEP=50 $END                                 
 INPUT CARD> $STATPT HESS=calc ihrep=5 $END                                                 
 INPUT CARD> $FORCE nvib=2 $END                                                             
 INPUT CARD> $ZMAT DLC=.t. auto=.t. nonvdw(1)=4,17,5,18,17,18,4,5 $END                      
 INPUT CARD>!$ZMAT IFZMAT(1)=1,4,17,1,5,18,1,17,18 fvalue(1)=2.08,2.01,1.98 $END            
 INPUT CARD>                                                                                
 INPUT CARD> $DATA                                                                          
 INPUT CARD>Title                                                                           
 INPUT CARD>C1                                                                              
 INPUT CARD>C     6.0    -0.44984952     1.02240098     0.62774652                          
 INPUT CARD>C     6.0    -1.02328897     0.13052535    -0.50331539                          
 INPUT CARD>C     6.0    -0.16044521    -1.15312040    -0.46953133                          
 INPUT CARD>C     6.0     0.98966861     0.53587329     0.78196502                          
 INPUT CARD>C     6.0     1.19804299    -0.68821180     0.10437270                          
 INPUT CARD>C     6.0     2.19417953    -1.73153901     0.63094527                          
 INPUT CARD>H     1.0    -0.99170107     0.85390067     1.55928159                          
 INPUT CARD>H     1.0    -0.52577579     2.08216596     0.39267585                          
 INPUT CARD>H     1.0    -0.91039336     0.62610465    -1.46360803                          
 INPUT CARD>H     1.0    -2.07782340    -0.08851946    -0.35978410                          
 INPUT CARD>H     1.0    -0.08239564    -1.64377713    -1.43504226                          
 INPUT CARD>H     1.0    -0.57567185    -1.86778688     0.24187227                          
 INPUT CARD>H     1.0     1.60857749     0.83510405     1.61531210                          
 INPUT CARD>H     1.0     1.80717802    -2.14041090     1.56299281                          
 INPUT CARD>H     1.0     3.15893745    -1.27566540     0.83074093                          
 INPUT CARD>H     1.0     2.32732272    -2.54243088    -0.07762565                          
 INPUT CARD>B     5.0     2.11296058     0.93038368    -0.92360723                          
 INPUT CARD>H     1.0     2.06563306    -0.89158171    -1.69730103                          
 INPUT CARD>H     1.0     1.43971550     1.56260586    -1.61223209                          
 INPUT CARD>H     1.0     3.19481683     1.09932208    -0.56347036                          
 INPUT CARD> $END                                                                           
    1000000 WORDS OF MEMORY AVAILABLE

     BASIS OPTIONS
     -------------
     GBASIS=STO          IGAUSS=       3      POLAR=NONE    
     NDFUNC=       0     NFFUNC=       0     DIFFSP=       F
     NPFUNC=       0      DIFFS=       F     BASNAM=        


     RUN TITLE
     ---------
 Title                                                                           

 THE POINT GROUP OF THE MOLECULE IS C1      
 THE ORDER OF THE PRINCIPAL AXIS IS     0

 ATOM      ATOMIC                      COORDINATES (BOHR)
           CHARGE         X                   Y                   Z
 C           6.0    -0.8500923285        1.9320577018        1.1862689125
 C           6.0    -1.9337357596        0.2466571460       -0.9511281725
 C           6.0    -0.3031974829       -2.1790815869       -0.8872855564
 C           6.0     1.8702024915        1.0126536822        1.4776996198
 C           6.0     2.2639729726       -1.3005317235        0.1972358036
 C           6.0     4.1463980796       -3.2721342660        1.1923136735
 H           1.0    -1.8740432840        1.6136382870        2.9466149428
 H           1.0    -0.9935721741        3.9347231254        0.7420497585
 H           1.0    -1.7203939914        1.1831662281       -2.7658181301
 H           1.0    -3.9265168769       -0.1672775240       -0.6798933637
 H           1.0    -0.1557051822       -3.1062883606       -2.7118366522
 H           1.0    -1.0878620553       -3.5296054067        0.4570723143
 H           1.0     3.0397706861        1.5781178257        3.0524972537
 H           1.0     3.4150712688       -4.0447901021        2.9536281317
 H           1.0     5.9695261929       -2.4106580580        1.5698727245
 H           1.0     4.3980022258       -4.8044977059       -0.1466912081
 B           5.0     3.9929165191        1.7581702186       -1.7453645850
 H           1.0     3.9034804746       -1.6848451276       -3.2074338654
 H           1.0     2.7206677953        2.9528969022       -3.0466768787
 H           1.0     6.0373283897        2.0774175035       -1.0648045826

          INTERNUCLEAR DISTANCES (ANGS.)
          ------------------------------

                1 C          2 C          3 C          4 C          5 C     

   1 C       0.0000000    1.5503471 *  2.4537047 *  1.5273195 *  2.4322142 *
   2 C       1.5503471 *  0.0000000    1.5470576 *  2.4224473 *  2.4441626 *
   3 C       2.4537047 *  1.5470576 *  0.0000000    2.3961854 *  1.5462846 *
   4 C       1.5273195 *  2.4224473 *  2.3961854 *  0.0000000    1.4145443 *
   5 C       2.4322142 *  2.4441626 *  1.5462846 *  1.4145443 *  0.0000000  
   6 C       3.8177330    3.8866354    2.6626818 *  2.5719277 *  1.5356101 *
   7 H       1.0907580 *  2.1859954 *  2.9724067 *  2.1520196 *  3.0479255  
   8 H       1.0881750 *  2.2043640 *  3.3680774    2.1998043 *  3.2756164  
   9 H       2.1778235 *  1.0865110 *  2.1716935 *  2.9429535 *  2.9379406 *
  10 H       2.2044636 *  1.0865656 *  2.1958503 *  3.3321111    3.3624951  
  11 H       3.3909623    2.2139432 *  1.0858394 *  3.2886652    2.2186542 *
  12 H       2.9185469 *  2.1792011 *  1.0905303 *  2.9188308 *  2.1345650 *
  13 H       2.2907395 *  3.4513381    3.3806878    1.0803030 *  2.1844834 *
  14 H       3.9965282    4.1759220    2.9962373 *  2.9053095 *  2.1465089 *
  15 H       4.2831833    4.6095658    3.5670753    2.8266197 *  2.1720542 *
  16 H       4.5736486    4.3072619    2.8762411 *  3.4647036    2.1786520 *
  17 B       2.9971922 *  3.2638137    3.1169774    2.0800000 *  2.1245395 *
  18 H       3.9238793    3.4657963    2.5556301 *  3.0564829    2.0100000 *
  19 H       2.9798962 *  3.0572769    3.3528269    2.6436531 *  2.8410065 *
  20 H       3.8351672    4.3283487    4.0422896    2.6439269 *  2.7619554 *

                6 C          7 H          8 H          9 H         10 H     

   1 C       3.8177330    1.0907580 *  1.0881750 *  2.1778235 *  2.2044636 *
   2 C       3.8866354    2.1859954 *  2.2043640 *  1.0865110 *  1.0865656 *
   3 C       2.6626818 *  2.9724067 *  3.3680774    2.1716935 *  2.1958503 *
   4 C       2.5719277 *  2.1520196 *  2.1998043 *  2.9429535 *  3.3321111  
   5 C       1.5356101 *  3.0479255    3.2756164    2.9379406 *  3.3624951  
   6 C       0.0000000    4.2066782    4.6903385    4.4253825    4.6830617  
   7 H       4.2066782    0.0000000    1.7568981 *  3.0325507    2.3980472 *
   8 H       4.6903385    1.7568981 *  0.0000000    2.3903630 *  2.7725301 *
   9 H       4.4253825    3.0325507    2.3903630 *  0.0000000    1.7584106 *
  10 H       4.6830617    2.3980472 *  2.7725301 *  1.7584106 *  0.0000000  
  11 H       3.0755164    4.0038989    4.1737024    2.4163525 *  2.7489523 *
  12 H       2.8003603 *  3.0522501    3.9531454    3.0397692    2.4050452 *
  13 H       2.8106164 *  2.6009501 *  2.7578011 *  3.9835467    4.2829472  
  14 H       1.0888797 *  4.0987364    4.9641183    4.9192596    4.7958905  
  15 H       1.0855860 *  4.7216124    5.0044025    5.0438299    5.5000300  
  16 H       1.0850555 *  5.0229924    5.4541957    4.7374434    5.0504066  
  17 B       3.0836768    3.9761175    3.1657753    3.0862365    4.3495667  
  18 H       2.4784639 *  4.7957618    4.4639196    3.3488382    4.4274250  
  19 H       4.0561621    4.0586388    2.8553029 *  2.5341932 *  4.0826365  
  20 H       3.2313586    4.7003446    3.9652247    4.2292947    5.4086219  

               11 H         12 H         13 H         14 H         15 H     

   1 C       3.3909623    2.9185469 *  2.2907395 *  3.9965282    4.2831833  
   2 C       2.2139432 *  2.1792011 *  3.4513381    4.1759220    4.6095658  
   3 C       1.0858394 *  1.0905303 *  3.3806878    2.9962373 *  3.5670753  
   4 C       3.2886652    2.9188308 *  1.0803030 *  2.9053095 *  2.8266197 *
   5 C       2.2186542 *  2.1345650 *  2.1844834 *  2.1465089 *  2.1720542 *
   6 C       3.0755164    2.8003603 *  2.8106164 *  1.0888797 *  1.0855860 *
   7 H       4.0038989    3.0522501    2.6009501 *  4.0987364    4.7216124  
   8 H       4.1737024    3.9531454    2.7578011 *  4.9641183    5.0044025  
   9 H       2.4163525 *  3.0397692    3.9835467    4.9192596    5.0438299  
  10 H       2.7489523 *  2.4050452 *  4.2829472    4.7958905    5.5000300  
  11 H       0.0000000    1.7622554 *  4.2788905    3.5784561    3.9718409  
  12 H       1.7622554 *  0.0000000    3.7366966    2.7381850 *  3.8268369  
  13 H       4.2788905    3.7366966    0.0000000    2.9825943 *  2.7339560 *
  14 H       3.5784561    2.7381850 *  2.9825943 *  0.0000000    1.7638682 *
  15 H       3.9718409    3.8268369    2.7339560 *  1.7638682 *  0.0000000  
  16 H       2.9080751 *  2.9974324 *  3.8458257    1.7674274 *  1.7667506 *
  17 B       3.4216164    4.0517706    2.5902880 *  3.9631379    3.0064028  
  18 H       2.2909834 *  3.4190439    3.7634757    3.5008412    2.7809766 *
  19 H       3.5537460    4.3894286    3.3128258    4.8917701    4.1206341  
  20 H       4.3616915    4.8650691    2.7079622 *  4.1162188    2.7542110 *

               16 H         17 B         18 H         19 H         20 H     

   1 C       4.5736486    2.9971922 *  3.9238793    2.9798962 *  3.8351672  
   2 C       4.3072619    3.2638137    3.4657963    3.0572769    4.3283487  
   3 C       2.8762411 *  3.1169774    2.5556301 *  3.3528269    4.0422896  
   4 C       3.4647036    2.0800000 *  3.0564829    2.6436531 *  2.6439269 *
   5 C       2.1786520 *  2.1245395 *  2.0100000 *  2.8410065 *  2.7619554 *
   6 C       1.0850555 *  3.0836768    2.4784639 *  4.0561621    3.2313586  
   7 H       5.0229924    3.9761175    4.7957618    4.0586388    4.7003446  
   8 H       5.4541957    3.1657753    4.4639196    2.8553029 *  3.9652247  
   9 H       4.7374434    3.0862365    3.3488382    2.5341932 *  4.2292947  
  10 H       5.0504066    4.3495667    4.4274250    4.0826365    5.4086219  
  11 H       2.9080751 *  3.4216164    2.2909834 *  3.5537460    4.3616915  
  12 H       2.9974324 *  4.0517706    3.4190439    4.3894286    4.8650691  
  13 H       3.8458257    2.5902880 *  3.7634757    3.3128258    2.7079622 *
  14 H       1.7674274 *  3.9631379    3.5008412    4.8917701    4.1162188  
  15 H       1.7667506 *  3.0064028    2.7809766 *  4.1206341    2.7542110 *
  16 H       0.0000000    3.5807928    2.3274735 *  4.4714863    3.7750438  
  17 B       3.5807928    0.0000000    1.9800000 *  1.1520278 *  1.1526715 *
  18 H       2.3274735 *  1.9800000 *  0.0000000    2.5341756 *  2.5542760 *
  19 H       4.4714863    1.1520278 *  2.5341756 *  0.0000000    2.0964049 *
  20 H       3.7750438    1.1526715 *  2.5542760 *  2.0964049 *  0.0000000  

  * ... LESS THAN  3.000


     ATOMIC BASIS SET
     ----------------
 THE CONTRACTED PRIMITIVE FUNCTIONS HAVE BEEN UNNORMALIZED
 THE CONTRACTED BASIS FUNCTIONS ARE NOW NORMALIZED TO UNITY

  SHELL TYPE  PRIMITIVE        EXPONENT          CONTRACTION COEFFICIENT(S)

 C         

      1   S       1            71.6168373    0.154328967295
      1   S       2            13.0450963    0.535328142282
      1   S       3             3.5305122    0.444634542185

      2   L       4             2.9412494   -0.099967229187    0.155916274999
      2   L       5             0.6834831    0.399512826089    0.607683718598
      2   L       6             0.2222899    0.700115468880    0.391957393099

 C         

      3   S       7            71.6168373    0.154328967295
      3   S       8            13.0450963    0.535328142282
      3   S       9             3.5305122    0.444634542185

      4   L      10             2.9412494   -0.099967229187    0.155916274999
      4   L      11             0.6834831    0.399512826089    0.607683718598
      4   L      12             0.2222899    0.700115468880    0.391957393099

 C         

      5   S      13            71.6168373    0.154328967295
      5   S      14            13.0450963    0.535328142282
      5   S      15             3.5305122    0.444634542185

      6   L      16             2.9412494   -0.099967229187    0.155916274999
      6   L      17             0.6834831    0.399512826089    0.607683718598
      6   L      18             0.2222899    0.700115468880    0.391957393099

 C         

      7   S      19            71.6168373    0.154328967295
      7   S      20            13.0450963    0.535328142282
      7   S      21             3.5305122    0.444634542185

      8   L      22             2.9412494   -0.099967229187    0.155916274999
      8   L      23             0.6834831    0.399512826089    0.607683718598
      8   L      24             0.2222899    0.700115468880    0.391957393099

 C         

      9   S      25            71.6168373    0.154328967295
      9   S      26            13.0450963    0.535328142282
      9   S      27             3.5305122    0.444634542185

     10   L      28             2.9412494   -0.099967229187    0.155916274999
     10   L      29             0.6834831    0.399512826089    0.607683718598
     10   L      30             0.2222899    0.700115468880    0.391957393099

 C         

     11   S      31            71.6168373    0.154328967295
     11   S      32            13.0450963    0.535328142282
     11   S      33             3.5305122    0.444634542185

     12   L      34             2.9412494   -0.099967229187    0.155916274999
     12   L      35             0.6834831    0.399512826089    0.607683718598
     12   L      36             0.2222899    0.700115468880    0.391957393099

 H         

     13   S      37             3.4252509    0.154328967295
     13   S      38             0.6239137    0.535328142282
     13   S      39             0.1688554    0.444634542185

 H         

     14   S      40             3.4252509    0.154328967295
     14   S      41             0.6239137    0.535328142282
     14   S      42             0.1688554    0.444634542185

 H         

     15   S      43             3.4252509    0.154328967295
     15   S      44             0.6239137    0.535328142282
     15   S      45             0.1688554    0.444634542185

 H         

     16   S      46             3.4252509    0.154328967295
     16   S      47             0.6239137    0.535328142282
     16   S      48             0.1688554    0.444634542185

 H         

     17   S      49             3.4252509    0.154328967295
     17   S      50             0.6239137    0.535328142282
     17   S      51             0.1688554    0.444634542185

 H         

     18   S      52             3.4252509    0.154328967295
     18   S      53             0.6239137    0.535328142282
     18   S      54             0.1688554    0.444634542185

 H         

     19   S      55             3.4252509    0.154328967295
     19   S      56             0.6239137    0.535328142282
     19   S      57             0.1688554    0.444634542185

 H         

     20   S      58             3.4252509    0.154328967295
     20   S      59             0.6239137    0.535328142282
     20   S      60             0.1688554    0.444634542185

 H         

     21   S      61             3.4252509    0.154328967295
     21   S      62             0.6239137    0.535328142282
     21   S      63             0.1688554    0.444634542185

 H         

     22   S      64             3.4252509    0.154328967295
     22   S      65             0.6239137    0.535328142282
     22   S      66             0.1688554    0.444634542185

 B         

     23   S      67            48.7911132    0.154328967295
     23   S      68             8.8873622    0.535328142282
     23   S      69             2.4052670    0.444634542185

     24   L      70             2.2369561   -0.099967229187    0.155916274999
     24   L      71             0.5198205    0.399512826089    0.607683718598
     24   L      72             0.1690618    0.700115468880    0.391957393099

 H         

     25   S      73             3.4252509    0.154328967295
     25   S      74             0.6239137    0.535328142282
     25   S      75             0.1688554    0.444634542185

 H         

     26   S      76             3.4252509    0.154328967295
     26   S      77             0.6239137    0.535328142282
     26   S      78             0.1688554    0.444634542185

 H         

     27   S      79             3.4252509    0.154328967295
     27   S      80             0.6239137    0.535328142282
     27   S      81             0.1688554    0.444634542185

 TOTAL NUMBER OF BASIS SET SHELLS             =   27
 NUMBER OF CARTESIAN GAUSSIAN BASIS FUNCTIONS =   48
 NUMBER OF ELECTRONS                          =   54
 CHARGE OF MOLECULE                           =    0
 SPIN MULTIPLICITY                            =    1
 NUMBER OF OCCUPIED ORBITALS (ALPHA)          =   27
 NUMBER OF OCCUPIED ORBITALS (BETA )          =   27
 TOTAL NUMBER OF ATOMS                        =   20
 THE NUCLEAR REPULSION ENERGY IS      304.1150226461

     $CONTRL OPTIONS
     ---------------
 SCFTYP=RHF          RUNTYP=SADPOINT     EXETYP=RUN     
 MPLEVL=       0     CITYP =NONE         CCTYP =NONE         VBTYP =NONE    
 DFTTYP=NONE         TDDFT =NONE    
 MULT  =       1     ICHARG=       0     NZVAR =       1     COORD =UNIQUE  
 PP    =NONE         RELWFN=NONE         LOCAL =NONE         NUMGRD=       F
 ISPHER=      -1     NOSYM =       0     MAXIT =      30     UNITS =ANGS    
 PLTORB=       F     MOLPLT=       F     AIMPAC=       F     FRIEND=        
 NPRINT=       7     IREST =       0     GEOM  =INPUT   
 NORMF =       0     NORMP =       0     ITOL  =      20     ICUT  =       9
 INTTYP=BEST         GRDTYP=BEST         QMTTOL= 1.0E-06

     $SYSTEM OPTIONS
     ---------------
  REPLICATED MEMORY=     1000000 WORDS (ON EVERY NODE).
 DISTRIBUTED MEMDDI=           0 MILLION WORDS IN AGGREGATE,
 MEMDDI DISTRIBUTED OVER   1 PROCESSORS IS           0 WORDS/PROCESSOR.
 TOTAL MEMORY REQUESTED ON EACH PROCESSOR=     1000000 WORDS.
 TIMLIM=      525600.00 MINUTES, OR     365.0 DAYS.
 PARALL= F  BALTYP=  DLB     KDIAG=    0  COREFL= F
 MXSEQ2=     300 MXSEQ3=     150  mem10=         0

          ----------------
          PROPERTIES INPUT
          ----------------

     MOMENTS            FIELD           POTENTIAL          DENSITY
 IEMOM =       1   IEFLD =       0   IEPOT =       0   IEDEN =       0
 WHERE =COMASS     WHERE =NUCLEI     WHERE =NUCLEI     WHERE =NUCLEI  
 OUTPUT=BOTH       OUTPUT=BOTH       OUTPUT=BOTH       OUTPUT=BOTH    
 IEMINT=       0   IEFINT=       0                     IEDINT=       0
                                                       MORB  =       0
          EXTRAPOLATION IN EFFECT
          SOSCF IN EFFECT
 ORBITAL PRINTING OPTION: NPREO=     1    48     2     1

     -------------------------------
     INTEGRAL TRANSFORMATION OPTIONS
     -------------------------------
     NWORD  =            0
     CUTOFF = 1.0E-09     MPTRAN =       0
     DIRTRF =       F     AOINTS =DUP     

          ----------------------
          INTEGRAL INPUT OPTIONS
          ----------------------
 NOPK  =       1 NORDER=       0 SCHWRZ=       T


 -----------------------------------------------
  STATISTICS ON AUTOMATIC COORDINATE GENERATION 
 -----------------------------------------------
  NUMBER OF USER SPECIFIED BONDS                             4
  NUMBER OF BONDS                                           22
  NUMBER OF ANGLES                                          49
  NUMBER OF TORSIONS                                        69
  NUMBER OF EXTRA COORD.                                     0
  NUMBER OF EXTRA COORD. FOR CONSTRAINTS                     0
  NUMBER OF CONSTRAINED COORD.                               0

  TOTAL NUMBER OF PRIMITIVES                               140
 -----------------------------------------------

   --- ENCODED Z MATRIX ---
 COORD  TYPE   I   J   K   L   M   N
    1      1    1   7
    2      1    1   2
    3      1    1   8
    4      1    1   4
    5      1    2   3
    6      1    2  10
    7      1    2   9
    8      1    3  12
    9      1    3  11
   10      1    3   5
   11      1    4  13
   12      1    4   5
   13      1    4   5
   14      1    4  17
   15      1    5   6
   16      1    5  18
   17      1    6  15
   18      1    6  14
   19      1    6  16
   20      1   17  18
   21      1   17  20
   22      1   17  19
   23      2    1   2   3
   24      2    1   4   5
   25      2    1   4  17
   26      2    1   4  13
   27      2    1   2  10
   28      2    1   4   5
   29      2    1   2   9
   30      2    2   3   5
   31      2    2   3  11
   32      2    2   1   4
   33      2    2   1   7
   34      2    2   3  12
   35      2    2   1   8
   36      2    3   2   9
   37      2    3   2  10
   38      2    3   5  18
   39      2    3   5   6
   40      2    3   5   4
   41      2    3   5   4
   42      2    4   5   6
   43      2    4   1   7
   44      2    4   5  18
   45      2    4  17  19
   46      2    4  17  20
   47      2    4  17  18
   48      2    4   5   6
   49      2    4   5  18
   50      2    4   1   8
   51      2    5   4  17
   52      2    5   4  13
   53      2    5   4  13
   54      2    5   3  11
   55      2    5   3  12
   56      2    5   6  14
   57      2    5   6  15
   58      2    5   6  16
   59      2    5  18  17
   60      2    5   4  17
   61      2    6   5  18
   62      2    7   1   8
   63      2    9   2  10
   64      2   11   3  12
   65      2   13   4  17
   66      2   14   6  16
   67      2   14   6  15
   68      2   15   6  16
   69      2   18  17  19
   70      2   18  17  20
   71      2   19  17  20
   72      3    1   4   5  18
   73      3    1   2   3   5
   74      3    1   4   5   6
   75      3    1   2   3  11
   76      3    1   4   5   3
   77      3    1   2   3  12
   78      3    1   4  17  19
   79      3    1   4  17  20
   80      3    1   4  17  18
   81      3    2   1   4  17
   82      3    2   3   5  18
   83      3    2   1   4  13
   84      3    2   3   5   6
   85      3    2   3   5   4
   86      3    2   1   4   5
   87      3    3   2   1   4
   88      3    3   2   1   7
   89      3    3   2   1   8
   90      3    3   5   4  17
   91      3    3   5   4  13
   92      3    3   5   6  16
   93      3    3   5   6  14
   94      3    3   5   6  15
   95      3    3   5  18  17
   96      3    4  17  18   5
   97      3    4   5  18  17
   98      3    4   1   2  10
   99      3    4   5   6  16
  100      3    4   5   6  14
  101      3    4   5   6  15
  102      3    4   5   3  11
  103      3    4   5   3  12
  104      3    4   1   2   9
  105      3    5   4  17  18
  106      3    5   4   1   7
  107      3    5   4  17  20
  108      3    5   4  17  19
  109      3    5  18  17  19
  110      3    5  18  17  20
  111      3    5   4   1   8
  112      3    5   3   2   9
  113      3    5   3   2  10
  114      3    6   5   4  17
  115      3    6   5   4  13
  116      3    6   5  18  17
  117      3    6   5   3  11
  118      3    6   5   3  12
  119      3    7   1   2   9
  120      3    7   1   4  17
  121      3    7   1   2  10
  122      3    7   1   4  13
  123      3    8   1   4  17
  124      3    8   1   2  10
  125      3    8   1   4  13
  126      3    8   1   2   9
  127      3    9   2   3  12
  128      3    9   2   3  11
  129      3   10   2   3  12
  130      3   10   2   3  11
  131      3   11   3   5  18
  132      3   12   3   5  18
  133      3   13   4  17  18
  134      3   13   4  17  20
  135      3   13   4  17  19
  136      3   13   4   5  18
  137      3   14   6   5  18
  138      3   15   6   5  18
  139      3   16   6   5  18
  140      3   17   4   5  18

          INDEP./SYM. INTERNAL COORDINATES
          --------------------------------
 CRD  1=  -0.1019 (  4)  0.1045 (  5)  0.2354 ( 10)  0.3981 ( 39) -0.3103 ( 42)
          -0.3103 ( 48) -0.2444 ( 57)  0.2369 ( 58) -0.1877 ( 74) -0.1101 ( 81)
          -0.1078 ( 93) -0.1225 (114) -0.1527 (115)  0.3073 (116)
 CRD  2=   0.2065 (  4)  0.2057 ( 10)  0.2720 ( 25)  0.1418 ( 30)  0.2128 ( 38)
          -0.1174 ( 40) -0.1174 ( 41)  0.1255 ( 45)  0.1127 ( 56) -0.1037 ( 57)
          -0.2371 ( 61) -0.1473 ( 65)  0.2127 ( 72)  0.1013 ( 80) -0.1365 ( 82)
          -0.2782 ( 90)  0.1053 ( 95) -0.1566 (109) -0.1004 (110) -0.3043 (114)
           0.1599 (116)  0.1557 (136)
 CRD  3=  -0.1677 (  4) -0.1553 ( 10) -0.1385 ( 12) -0.1385 ( 13)  0.1011 ( 14)
          -0.5785 ( 15)  0.1326 ( 40)  0.1326 ( 41) -0.1382 ( 42) -0.1382 ( 48)
          -0.3321 ( 56) -0.1317 ( 57)  0.1565 ( 66)  0.1783 ( 67)  0.1272 ( 68)
           0.1199 ( 72)  0.1413 ( 74) -0.1657 ( 84)  0.1466 ( 95) -0.1081 (118)
 CRD  4=  -0.2084 ( 10) -0.2507 ( 14) -0.3484 ( 15)  0.1244 ( 23) -0.1375 ( 32)
          -0.1154 ( 36)  0.1061 ( 43)  0.1312 ( 47)  0.2054 ( 56) -0.2126 ( 57)
          -0.2662 ( 58) -0.1108 ( 59) -0.1488 ( 61)  0.1590 ( 68)  0.1187 ( 71)
          -0.1002 ( 72) -0.2049 ( 74) -0.1142 ( 76)  0.2141 ( 84) -0.1495 ( 94)
           0.1042 (111) -0.1077 (114)  0.1309 (117)  0.1183 (118)  0.1014 (139)
 CRD  5=  -0.1193 (  1) -0.2627 (  4)  0.3155 ( 10) -0.2386 ( 14)  0.1727 ( 20)
           0.1023 ( 26)  0.1143 ( 29) -0.1031 ( 30)  0.1841 ( 32) -0.1337 ( 33)
           0.1063 ( 38) -0.1096 ( 44) -0.1055 ( 46) -0.1096 ( 49) -0.1748 ( 50)
           0.1417 ( 51)  0.1840 ( 54)  0.1417 ( 60)  0.1069 ( 69)  0.1007 ( 70)
          -0.1412 ( 76)  0.2133 ( 81)  0.1703 ( 82)  0.1058 ( 85)  0.1102 ( 86)
           0.1430 (120)  0.1156 (123)  0.1201 (132) -0.1057 (137)
 CRD  6=  -0.1059 (  5)  0.1021 (  8)  0.1655 ( 10)  0.4853 ( 14)  0.2039 ( 23)
          -0.1900 ( 30)  0.1400 ( 43)  0.1954 ( 45)  0.1750 ( 46) -0.1804 ( 47)
           0.1614 ( 55)  0.3043 ( 56) -0.1978 ( 57) -0.1090 ( 58)  0.1691 ( 59)
           0.1194 ( 68) -0.2134 ( 71) -0.1407 (109)  0.1323 (110)
 CRD  7=   0.2038 (  2)  0.1773 (  3)  0.3294 (  4) -0.1531 ( 10)  0.1199 ( 12)
           0.1199 ( 13)  0.1200 ( 15)  0.1067 ( 19)  0.1885 ( 23) -0.2497 ( 32)
           0.1228 ( 35) -0.1454 ( 36)  0.1261 ( 43)  0.1192 ( 50) -0.1359 ( 56)
          -0.2004 ( 57)  0.4362 ( 58) -0.1278 ( 62) -0.1192 ( 66)  0.1144 ( 67)
          -0.1008 ( 68)  0.1163 ( 81)  0.1355 ( 95)  0.1227 (108)
 CRD  8=   0.2810 (  2)  0.2113 (  4) -0.1317 (  5)  0.1022 (  7) -0.1325 (  9)
          -0.1620 ( 10) -0.1611 ( 12) -0.1611 ( 13) -0.2730 ( 23)  0.1507 ( 26)
           0.1765 ( 27)  0.1648 ( 29)  0.2611 ( 30) -0.1227 ( 31) -0.1015 ( 45)
           0.1751 ( 46) -0.1075 ( 47) -0.1332 ( 54)  0.2426 ( 56) -0.1604 ( 57)
          -0.1176 ( 63)  0.1099 ( 64)  0.1025 ( 68)  0.1169 ( 78)  0.1136 ( 79)
           0.1144 ( 82)  0.1082 (109)  0.1273 (110)
 CRD  9=   0.4665 (  2)  0.1086 (  3)  0.1246 (  4)  0.1541 (  9)  0.3292 ( 10)
           0.1364 ( 17) -0.1123 ( 19)  0.3908 ( 57) -0.3282 ( 58)  0.1658 ( 66)
          -0.1350 ( 67)  0.1069 (127)
 CRD 10=   0.2527 (  2) -0.1652 (  4)  0.5241 (  5)  0.1294 (  6)  0.1130 (  9)
          -0.1124 ( 10) -0.1285 ( 23)  0.1474 ( 31)  0.1298 ( 34)  0.1139 ( 37)
          -0.1153 ( 39) -0.1211 ( 43) -0.1136 ( 55)  0.2617 ( 56) -0.2271 ( 57)
          -0.1271 ( 66)  0.1023 ( 75) -0.1069 (103) -0.1016 (126)
 CRD 11=  -0.1930 (  2)  0.2185 (  4)  0.3997 (  5)  0.1190 (  8)  0.1589 ( 14)
          -0.1224 ( 15) -0.1843 ( 27) -0.1800 ( 33)  0.1438 ( 34)  0.2506 ( 37)
           0.1997 ( 43)  0.1795 ( 46) -0.2368 ( 56)  0.1642 ( 57)  0.1364 ( 66)
          -0.1186 ( 76) -0.1102 ( 77)  0.1003 ( 85) -0.1576 ( 88)  0.1747 ( 98)
           0.1543 (110) -0.1236 (119)  0.1136 (124)
 CRD 12=  -0.1157 (  1) -0.2724 (  2)  0.1853 (  4)  0.1376 (  5)  0.1356 (  9)
          -0.1838 ( 14)  0.1093 ( 18) -0.1024 ( 22)  0.1000 ( 23)  0.1117 ( 26)
          -0.2000 ( 29)  0.1001 ( 31) -0.2061 ( 35)  0.1506 ( 36) -0.2494 ( 45)
           0.2145 ( 50)  0.2098 ( 56) -0.1648 ( 58)  0.1299 ( 68)  0.1250 ( 78)
          -0.1160 ( 84) -0.1080 ( 85)  0.1357 ( 89) -0.1664 (104)  0.2173 (109)
           0.1034 (111) -0.1011 (119)  0.1317 (123)  0.1049 (124)  0.1043 (125)
 CRD 13=  -0.1107 (  2) -0.2412 ( 10) -0.2128 ( 11) -0.1379 ( 12) -0.1379 ( 13)
           0.1494 ( 15) -0.1219 ( 19) -0.1054 ( 21)  0.1434 ( 22) -0.1052 ( 42)
           0.2187 ( 45) -0.2792 ( 46) -0.1052 ( 48) -0.1190 ( 52) -0.1190 ( 53)
           0.1298 ( 56)  0.2388 ( 57) -0.1990 ( 58) -0.1840 ( 67)  0.1358 (108)
          -0.2604 (109) -0.3399 (110)  0.1309 (116)
 CRD 14=   0.1277 (  5)  0.2117 (  8) -0.1403 ( 16) -0.1061 ( 18)  0.1153 ( 19)
           0.2122 ( 20)  0.1854 ( 27) -0.1768 ( 29)  0.1470 ( 31)  0.1983 ( 36)
          -0.1032 ( 37) -0.1016 ( 46) -0.2465 ( 54)  0.2543 ( 55) -0.1699 ( 56)
           0.1118 ( 58)  0.1161 ( 67)  0.1209 ( 70)  0.1317 ( 75)  0.1504 ( 77)
           0.1159 ( 84) -0.1028 ( 86)  0.1201 ( 87) -0.1096 ( 92) -0.1101 ( 93)
          -0.1294 ( 94) -0.1023 (110) -0.2385 (112) -0.2246 (113)  0.1408 (117)
           0.1139 (118)
 CRD 15=  -0.2241 (  4) -0.1069 (  9) -0.1086 ( 10) -0.5520 ( 11)  0.1492 ( 21)
          -0.1037 ( 22)  0.1259 ( 24)  0.1130 ( 25) -0.1265 ( 26)  0.1259 ( 28)
           0.1166 ( 35) -0.2481 ( 45)  0.2300 ( 46)  0.1300 ( 69)  0.1166 (108)
           0.2083 (109)  0.1902 (110)  0.1029 (135)
 CRD 16=  -0.2611 (  1)  0.2874 (  6) -0.3495 (  7) -0.1735 (  9)  0.1039 ( 16)
          -0.2017 ( 20) -0.1296 ( 21)  0.1649 ( 27) -0.1685 ( 29) -0.1380 ( 54)
           0.1102 ( 55)  0.2125 ( 75)  0.1984 ( 77)  0.1083 ( 79)  0.1054 ( 86)
          -0.1135 ( 87) -0.1065 ( 88) -0.1271 ( 89)  0.1449 ( 92)  0.1386 ( 93)
           0.1413 ( 94)  0.1668 ( 99)  0.1605 (100)  0.1633 (101) -0.1140 (112)
          -0.1042 (113)  0.1149 (137)  0.1176 (138)  0.1212 (139)
 CRD 17=   0.2791 (  6) -0.3818 (  7) -0.3000 (  8)  0.1638 (  9)  0.1059 ( 20)
           0.1467 ( 21)  0.1078 ( 35) -0.1618 ( 36)  0.1455 ( 37)  0.1320 ( 43)
          -0.1867 ( 50)  0.1488 ( 75)  0.1079 ( 77) -0.1081 ( 82) -0.1902 ( 88)
          -0.2177 ( 89) -0.1585 ( 92) -0.1564 ( 93) -0.1545 ( 94)  0.1170 ( 98)
          -0.1382 ( 99) -0.1361 (100) -0.1342 (101)  0.1265 (104) -0.1020 (137)
          -0.1001 (138) -0.1041 (139)
 CRD 18=   0.2270 (  1)  0.2446 (  4)  0.3394 ( 16)  0.1861 ( 18) -0.2001 ( 34)
           0.1096 ( 38)  0.1162 ( 43) -0.1430 ( 46)  0.1031 ( 55) -0.1334 ( 57)
          -0.1353 ( 58)  0.1650 ( 68)  0.1173 ( 72)  0.1146 ( 74) -0.1591 ( 79)
          -0.1368 ( 80)  0.1175 ( 92)  0.1359 ( 93)  0.1434 ( 94) -0.1209 ( 95)
          -0.1079 ( 97)  0.1374 (103)  0.1136 (115) -0.1019 (116)  0.1000 (131)
           0.1599 (132) -0.1262 (133) -0.1485 (134)  0.1163 (136)
 CRD 19=  -0.3117 (  1)  0.3900 (  3) -0.1450 ( 16)  0.2710 ( 17)  0.2241 ( 18)
           0.2746 ( 19)  0.1353 ( 20)  0.1334 ( 22) -0.1064 ( 33)  0.1296 ( 35)
          -0.1082 ( 37) -0.1375 ( 56) -0.1037 ( 57) -0.1388 ( 58)  0.1460 ( 66)
           0.1208 ( 67)  0.1235 ( 68) -0.1156 ( 80)  0.1138 ( 83) -0.1622 ( 98)
          -0.1456 (104) -0.1070 (115)
 CRD 20=  -0.2032 (  1)  0.2621 (  3)  0.1420 ( 11) -0.1304 ( 15)  0.1657 ( 16)
          -0.3894 ( 17) -0.3016 ( 18) -0.3606 ( 19) -0.1674 ( 33)  0.1594 ( 35)
          -0.1010 ( 37)  0.1568 ( 56)  0.1107 ( 58) -0.1400 ( 66) -0.1321 ( 67)
          -0.1036 ( 68) -0.1403 (106) -0.1327 (111) -0.1634 (120) -0.1558 (123)
 CRD 21=   0.2929 (  8) -0.2764 (  9)  0.3401 ( 16)  0.2644 ( 18) -0.1698 ( 20)
          -0.2158 ( 22)  0.1070 ( 27) -0.1601 ( 31)  0.1819 ( 34)  0.1346 ( 47)
          -0.1792 ( 69)  0.1052 ( 82) -0.1493 (102) -0.1641 (103) -0.1103 (112)
          -0.1237 (113) -0.1843 (117) -0.1991 (118) -0.1305 (137) -0.1148 (138)
          -0.1354 (139)
 CRD 22=  -0.1376 (  1) -0.1105 (  3) -0.1267 (  4) -0.1399 (  6)  0.1789 (  9)
           0.2542 ( 11)  0.1547 ( 15)  0.1750 ( 16)  0.1513 ( 17)  0.1542 ( 18)
           0.2068 ( 19) -0.2480 ( 21) -0.2311 ( 22)  0.1818 ( 31) -0.1184 ( 33)
          -0.1332 ( 34)  0.1142 ( 47)  0.1140 ( 78)  0.1552 ( 79)  0.1122 ( 80)
           0.1774 (102)  0.1717 (103)  0.1214 (117)  0.1157 (118) -0.1534 (120)
          -0.1347 (123)  0.1761 (131)  0.1704 (132)  0.1376 (134)
 CRD 23=   0.1521 ( 11)  0.1288 ( 16)  0.5783 ( 21)  0.6122 ( 22) -0.1210 ( 45)
           0.2402 ( 71)  0.1399 ( 79)  0.1115 (107)  0.1068 (109) -0.1130 (110)
           0.1440 (134)
 CRD 24=  -0.1235 (  6) -0.1009 ( 14) -0.2638 ( 16)  0.1795 ( 17)  0.3056 ( 21)
          -0.2168 ( 22) -0.1270 ( 33)  0.1014 ( 35)  0.1043 ( 43) -0.1945 ( 69)
           0.2055 ( 70) -0.1198 ( 78)  0.1080 ( 80)  0.1316 ( 93)  0.1281 ( 99)
           0.1745 (100)  0.1356 (101) -0.1360 (106) -0.1208 (107) -0.1644 (108)
          -0.1132 (111) -0.1200 (120) -0.1528 (122) -0.1300 (125) -0.1237 (134)
          -0.1673 (135)  0.2117 (137)  0.1728 (138)  0.1653 (139)
 CRD 25=   0.3923 (  3) -0.1429 (  6) -0.1518 (  7) -0.1553 (  9)  0.1029 ( 14)
           0.1544 ( 16)  0.1353 ( 17) -0.1270 ( 18)  0.2048 ( 21) -0.1441 ( 22)
           0.1083 ( 29)  0.1008 ( 33) -0.1169 ( 35)  0.1147 ( 37) -0.1818 ( 43)
           0.1220 ( 50) -0.1524 ( 69)  0.1391 ( 70) -0.1083 ( 72) -0.1020 ( 78)
          -0.1143 ( 79)  0.1209 ( 88) -0.1094 (107)  0.1198 (111)  0.1668 (119)
           0.2046 (121)  0.1386 (124)  0.1105 (125)  0.1009 (126)  0.1348 (127)
           0.1372 (128)  0.1007 (130)  0.1109 (131) -0.1162 (136)
 CRD 26=  -0.5538 ( 17)  0.5088 ( 19)  0.3082 ( 66) -0.2769 ( 67)  0.1473 ( 92)
          -0.1805 ( 93)  0.1104 ( 94)  0.1597 ( 99) -0.1681 (100)  0.1229 (101)
          -0.1700 (137)  0.1209 (138)  0.1578 (139)
 CRD 27=   0.1252 (  6)  0.1147 (  7) -0.1008 (  8)  0.2302 ( 17) -0.6075 ( 18)
           0.3479 ( 19) -0.1334 ( 66) -0.1959 ( 67)  0.3297 ( 68) -0.1521 ( 92)
           0.1975 ( 94) -0.1687 ( 99)  0.1809 (101)  0.1811 (138) -0.1685 (139)
 CRD 28=   0.2187 (  1) -0.4222 (  6) -0.4841 (  7)  0.3671 (  8)  0.3534 (  9)
          -0.1330 ( 18)  0.1035 ( 19) -0.1685 ( 63)  0.1340 ( 64) -0.1096 (126)
          -0.1611 (129)
 CRD 29=  -0.3532 (  1) -0.1824 (  3)  0.2827 (  6)  0.1869 (  7)  0.4333 (  8)
           0.4494 (  9)  0.1032 ( 50) -0.1166 ( 62)  0.1770 ( 64)  0.1617 (126)
           0.1262 (130)  0.1021 (132)
 CRD 30=  -0.4798 (  1) -0.4602 (  3)  0.1081 (  4) -0.3442 (  6) -0.2480 (  7)
          -0.1519 (  8) -0.2017 (  9)  0.1020 ( 33) -0.2150 ( 62) -0.1185 ( 63)
           0.1029 (106) -0.1245 (119)  0.1212 (120)  0.1040 (122)  0.1386 (124)
           0.1015 (127)
 CRD 31=   0.1565 (  1) -0.1383 (  3) -0.2636 (  8)  0.2337 (  9)  0.1227 ( 11)
           0.1249 ( 14)  0.2577 ( 16)  0.1603 ( 20) -0.1007 ( 22)  0.1204 ( 27)
          -0.1236 ( 29)  0.1165 ( 36) -0.1169 ( 37) -0.1033 ( 55)  0.1115 ( 70)
          -0.1326 ( 77) -0.1247 ( 79) -0.1118 ( 98) -0.1091 (104)  0.1303 (106)
           0.1087 (111) -0.1118 (112) -0.1016 (113) -0.1211 (119)  0.1186 (120)
          -0.1238 (121)  0.1155 (122) -0.1274 (124) -0.1246 (126) -0.2216 (127)
          -0.1809 (128) -0.2115 (129) -0.1708 (130)  0.1002 (131) -0.1034 (136)
 CRD 32=  -0.2529 (  8)  0.1911 (  9) -0.2348 ( 11) -0.1143 ( 12) -0.1143 ( 13)
          -0.1388 ( 16) -0.4858 ( 20) -0.1066 ( 44)  0.1107 ( 45) -0.1066 ( 49)
          -0.1605 ( 69) -0.1289 ( 70) -0.1629 ( 78)  0.1273 ( 82) -0.1044 ( 94)
           0.1008 (107) -0.1537 (108)  0.1637 (131)  0.1308 (132) -0.2280 (135)
          -0.1390 (137) -0.1829 (138) -0.1596 (139)
 CRD 33=   0.1350 (  1) -0.1177 (  3) -0.2807 (  6)  0.3009 (  7) -0.1075 ( 54)
           0.1083 ( 73)  0.1919 ( 75)  0.1560 ( 77) -0.1306 ( 87) -0.1781 ( 88)
          -0.1959 ( 89) -0.1801 ( 98) -0.1609 (104)  0.1057 (106)  0.1225 (112)
           0.1403 (113) -0.2084 (119) -0.2276 (121) -0.2455 (124) -0.2263 (126)
           0.1701 (127)  0.2061 (128)  0.1879 (129)  0.2239 (130)
 CRD 34=   0.1146 (  1) -0.1007 (  7)  0.1148 (  8) -0.1146 ( 10)  0.4220 ( 11)
          -0.1222 ( 12) -0.1222 ( 13) -0.1344 ( 16)  0.1966 ( 17)  0.1582 ( 18)
           0.1411 ( 19) -0.1316 ( 22)  0.1667 ( 56)  0.1779 ( 57)  0.1309 ( 58)
          -0.1405 ( 66) -0.1783 ( 67) -0.1693 ( 68)  0.1461 ( 72) -0.1037 ( 80)
          -0.1073 ( 97)  0.1337 (109)  0.1006 (122) -0.1151 (127) -0.1763 (133)
          -0.1239 (134) -0.1251 (135)  0.1311 (136)
 CRD 35=  -0.1280 (  3)  0.1124 (  6)  0.1373 ( 10) -0.3336 ( 11)  0.1138 ( 14)
          -0.1534 ( 15)  0.1070 ( 16)  0.1284 ( 18)  0.2181 ( 19)  0.1067 ( 20)
          -0.1187 ( 21) -0.1198 ( 33) -0.1067 ( 35) -0.1045 ( 39)  0.1257 ( 44)
           0.1257 ( 49)  0.1008 ( 50)  0.1445 ( 56)  0.1769 ( 58) -0.1305 ( 64)
           0.1410 ( 65) -0.2015 ( 66) -0.1392 ( 68)  0.1337 ( 83) -0.1352 ( 91)
           0.1025 (102)  0.1066 (111) -0.1459 (120)  0.1804 (125)  0.1306 (127)
          -0.1112 (132) -0.1053 (134) -0.1242 (136)  0.1275 (137)
 CRD 36=  -0.1999 (  1)  0.1192 (  3) -0.1804 (  6)  0.1888 (  7) -0.1767 (  8)
           0.1815 (  9) -0.1052 ( 14) -0.1040 ( 15)  0.3682 ( 16)  0.1070 ( 17)
           0.1422 ( 19)  0.2212 ( 20)  0.1188 ( 21)  0.1497 ( 26)  0.1380 ( 45)
           0.1404 ( 46)  0.1145 ( 47)  0.1025 ( 57)  0.1131 ( 58) -0.1273 ( 59)
          -0.1435 ( 65) -0.1492 ( 68) -0.1853 ( 71)  0.1560 ( 91) -0.1472 (109)
           0.1970 (110)  0.1084 (115) -0.1234 (132)  0.2036 (136)
 CRD 37=  -0.1538 (  1)  0.1229 (  3) -0.1837 (  6)  0.1842 (  7) -0.1797 (  8)
           0.1785 (  9) -0.1115 ( 12) -0.1115 ( 13)  0.4513 ( 14)  0.1171 ( 16)
          -0.2366 ( 20) -0.1255 ( 21) -0.1169 ( 22) -0.2368 ( 45) -0.2348 ( 46)
           0.1212 ( 59)  0.1420 ( 69)  0.1344 ( 70)  0.2095 ( 71) -0.1001 (103)
           0.2490 (109) -0.2465 (110)
 CRD 38=  -0.1768 (  3)  0.4398 ( 15)  0.1137 ( 16) -0.1881 ( 17) -0.1704 ( 18)
          -0.1077 ( 22)  0.1057 ( 26)  0.1147 ( 31)  0.1202 ( 34) -0.1187 ( 36)
          -0.1479 ( 37) -0.1003 ( 43) -0.1211 ( 52) -0.1211 ( 53) -0.1636 ( 56)
          -0.1731 ( 57) -0.1537 ( 58)  0.1197 ( 62) -0.1147 ( 64)  0.1398 ( 66)
           0.2142 ( 67)  0.1506 ( 68)  0.1193 ( 88) -0.1295 ( 98) -0.1026 (103)
           0.1007 (117)  0.2102 (119) -0.1387 (124) -0.1606 (132) -0.1549 (133)
          -0.1083 (134) -0.1248 (135)
 CRD 39=  -0.2317 (  2)  0.3228 (  5)  0.1124 (  6)  0.1329 (  9) -0.2799 ( 10)
          -0.1482 ( 15)  0.1686 ( 21) -0.1619 ( 22)  0.1635 ( 27)  0.2006 ( 29)
          -0.1241 ( 31) -0.1035 ( 36) -0.1184 ( 37)  0.1276 ( 54)  0.1946 ( 55)
          -0.1286 ( 63) -0.1042 ( 75)  0.1581 ( 77) -0.1003 (102)  0.1565 (112)
          -0.1509 (113) -0.1060 (122)  0.3379 (127) -0.2317 (130)
 CRD 40=   0.1897 (  2) -0.2309 (  4) -0.1123 (  5)  0.1007 (  6)  0.1326 ( 15)
          -0.1012 ( 17)  0.3093 ( 21) -0.3538 ( 22) -0.1123 ( 27) -0.1047 ( 31)
           0.1706 ( 36)  0.1481 ( 37) -0.1135 ( 46) -0.1098 ( 63)  0.1182 ( 67)
           0.1281 ( 69) -0.1332 ( 70)  0.1253 ( 98) -0.1443 (104)  0.1082 (107)
          -0.1055 (110)  0.1077 (118) -0.2314 (119)  0.1650 (124) -0.1046 (126)
          -0.1188 (131) -0.1676 (133)
 CRD 41=   0.1610 (  2) -0.2391 (  4)  0.1158 (  6) -0.1090 ( 10)  0.1683 ( 12)
           0.1683 ( 13)  0.2201 ( 17) -0.1306 ( 18) -0.1313 ( 19) -0.1705 ( 33)
          -0.1632 ( 35)  0.1393 ( 43)  0.1879 ( 50) -0.1014 ( 55)  0.1996 ( 66)
           0.1139 ( 72)  0.1491 ( 89)  0.1158 ( 92) -0.1238 ( 93)  0.1816 ( 99)
          -0.1504 (106)  0.1159 (112) -0.1310 (119) -0.1250 (120) -0.1136 (121)
          -0.1705 (122)  0.1042 (123)  0.1042 (124)  0.1718 (128) -0.1099 (129)
           0.1244 (136) -0.1904 (137)
 CRD 42=  -0.1045 (  1) -0.1288 (  6)  0.1049 (  7)  0.1821 ( 10) -0.1884 ( 16)
           0.2485 ( 18) -0.1380 ( 19)  0.2188 ( 21) -0.2307 ( 22)  0.1112 ( 27)
           0.1306 ( 31) -0.1192 ( 35) -0.1094 ( 36)  0.1068 ( 43)  0.1046 ( 45)
          -0.1599 ( 54) -0.1314 ( 67)  0.1726 ( 68) -0.1073 ( 70) -0.1008 ( 88)
           0.2059 ( 94) -0.1018 ( 95) -0.1457 ( 99)  0.1215 (101)  0.1059 (102)
           0.1330 (104)  0.1325 (111) -0.1272 (113)  0.1051 (123)  0.1249 (125)
           0.1152 (126) -0.1061 (127) -0.1774 (129)  0.1321 (134)  0.1497 (138)
          -0.1175 (139)
 CRD 43=  -0.1313 (  4)  0.1335 ( 11) -0.1934 ( 12) -0.1934 ( 13) -0.1289 ( 14)
           0.1251 ( 15) -0.1154 ( 17) -0.3585 ( 20)  0.2073 ( 22)  0.1141 ( 43)
           0.1314 ( 69)  0.1753 ( 70) -0.3244 ( 71)  0.1664 ( 78) -0.2318 ( 79)
          -0.2096 (107)  0.1885 (108)  0.1210 (110) -0.1238 (119) -0.1828 (134)
           0.2154 (135)
 CRD 44=  -0.1067 (  1)  0.1018 (  3) -0.1559 (  4)  0.1620 (  7) -0.1587 ( 10)
           0.2071 ( 15)  0.1604 ( 18) -0.1536 ( 19)  0.1482 ( 20) -0.2462 ( 21)
           0.1391 ( 22)  0.1101 ( 25) -0.1062 ( 45)  0.1237 ( 55) -0.1441 ( 63)
           0.1747 ( 68) -0.1285 ( 69)  0.1156 ( 71) -0.1226 ( 78) -0.1527 ( 90)
           0.1394 ( 94)  0.1231 ( 95)  0.1477 ( 98) -0.1273 ( 99) -0.1451 (108)
           0.1315 (109)  0.1009 (111) -0.1341 (113)  0.1074 (123)  0.1337 (125)
          -0.1540 (130) -0.2080 (135)  0.1351 (138)
 CRD 45=  -0.1185 (  1)  0.2175 (  2) -0.1785 (  3)  0.1390 (  5) -0.1439 (  9)
          -0.1090 ( 11)  0.1791 ( 12)  0.1791 ( 13) -0.2200 ( 20) -0.1161 ( 34)
          -0.1003 ( 51) -0.1003 ( 60)  0.2393 ( 62)  0.1310 ( 64)  0.1047 ( 70)
          -0.1420 ( 71)  0.1369 ( 78) -0.1104 ( 79)  0.1162 ( 88) -0.1332 ( 89)
           0.1510 (103) -0.1393 (107)  0.1080 (108)  0.1250 (111)  0.1542 (118)
           0.1523 (119) -0.1976 (120)  0.1500 (121)  0.1223 (125) -0.1261 (127)
           0.1319 (132) -0.2343 (134)
 CRD 46=   0.1110 (  4) -0.1513 (  5)  0.1751 (  9)  0.2520 ( 17) -0.2829 ( 19)
           0.1040 ( 35) -0.1175 ( 39) -0.1529 ( 57)  0.1483 ( 58) -0.1376 ( 64)
           0.2040 ( 66) -0.2069 ( 67)  0.1341 ( 77)  0.1046 ( 78)  0.1091 ( 92)
          -0.2216 ( 93)  0.1329 ( 94) -0.2335 (100)  0.1210 (101) -0.1345 (116)
          -0.1282 (123)  0.1655 (129) -0.1106 (132) -0.2118 (137)  0.1427 (138)
           0.1189 (139)
 CRD 47=   0.2295 (  1) -0.1768 (  3) -0.2753 (  8)  0.1007 (  9) -0.1065 ( 14)
          -0.1197 ( 29) -0.1096 ( 31) -0.1572 ( 33)  0.1352 ( 50) -0.1194 ( 54)
           0.1433 ( 64)  0.2489 ( 75)  0.1307 ( 81)  0.1540 ( 83)  0.1794 ( 89)
          -0.1480 ( 91) -0.1925 (102) -0.1226 (106) -0.1168 (111) -0.1023 (112)
          -0.1454 (115) -0.1717 (117)  0.1170 (121)  0.2160 (124)  0.1723 (126)
           0.1397 (128)  0.1597 (130) -0.1593 (131) -0.1188 (136)
 CRD 48=   0.1775 (  5) -0.1788 (  6)  0.1474 (  7) -0.1092 (  9) -0.1388 ( 12)
          -0.1388 ( 13) -0.1796 ( 14)  0.1148 ( 15)  0.1279 ( 17) -0.2065 ( 18)
          -0.1171 ( 26)  0.1183 ( 27) -0.1480 ( 34) -0.1414 ( 36) -0.1323 ( 39)
           0.1045 ( 56) -0.1039 ( 57)  0.1205 ( 66) -0.1362 ( 68)  0.1586 ( 74)
          -0.1076 ( 82)  0.1279 ( 83) -0.1471 ( 84) -0.1268 ( 88) -0.1527 ( 91)
           0.1831 ( 92)  0.1180 ( 99) -0.1495 (101)  0.1108 (103)  0.1514 (104)
          -0.1538 (117)  0.1647 (125)  0.1378 (126) -0.1242 (129) -0.1263 (130)
          -0.1143 (131)  0.1742 (139)
 CRD 49=  -0.1839 (  2)  0.1921 (  4) -0.2195 (  5)  0.1810 (  6)  0.1777 (  7)
           0.1266 ( 10)  0.2266 ( 23)  0.1304 ( 31) -0.1101 ( 32)  0.1322 ( 35)
          -0.2861 ( 63) -0.1237 ( 77)  0.1485 ( 88)  0.1729 ( 98) -0.1775 (104)
           0.1654 (112) -0.1549 (113)  0.3154 (121) -0.2760 (126)  0.2345 (128)
          -0.2729 (129)
 CRD 50=  -0.2528 (  2)  0.1386 (  3)  0.2057 (  5) -0.1698 (  9)  0.1738 ( 10)
           0.1204 ( 26)  0.1207 ( 29) -0.1737 ( 30)  0.1157 ( 32) -0.1453 ( 37)
          -0.1218 ( 39) -0.1614 ( 62)  0.2074 ( 64) -0.1655 ( 77)  0.1050 ( 78)
          -0.1452 ( 93)  0.1490 (103)  0.1515 (106)  0.1303 (112)  0.2013 (118)
          -0.1590 (121)  0.1165 (122) -0.1589 (123) -0.1198 (125)  0.2229 (128)
          -0.1837 (129) -0.1282 (131)  0.1097 (132)
 CRD 51=  -0.1493 (  1)  0.1423 (  2)  0.1053 (  6) -0.1316 (  7) -0.1000 (  8)
           0.1219 ( 10)  0.1336 ( 11) -0.2832 ( 12) -0.2832 ( 13)  0.1264 ( 24)
          -0.1736 ( 26) -0.1161 ( 27)  0.1264 ( 28) -0.1542 ( 32)  0.1487 ( 62)
          -0.1223 ( 73) -0.1213 ( 77) -0.1591 ( 78) -0.1135 ( 80) -0.1213 ( 83)
           0.1100 ( 84)  0.1245 ( 87)  0.1349 ( 88) -0.1094 (106)  0.1239 (111)
          -0.1412 (122)  0.2387 (123) -0.1677 (124) -0.1700 (126)  0.1311 (128)
           0.1644 (130)  0.1288 (134)
 CRD 52=   0.2204 (  4) -0.2239 ( 10) -0.1542 ( 11)  0.2095 ( 15) -0.1685 ( 24)
          -0.1685 ( 28)  0.1846 ( 40)  0.1846 ( 41) -0.1887 ( 42) -0.1887 ( 48)
           0.2350 ( 52)  0.2350 ( 53)  0.1563 ( 72) -0.1238 ( 74)  0.1222 ( 96)
          -0.2170 ( 97)  0.1508 (100) -0.1631 (105) -0.1342 (107) -0.1390 (108)
          -0.1249 (115) -0.1015 (131)  0.1027 (134)  0.1552 (136)  0.1955 (140)
 CRD 53=  -0.1043 (  1)  0.1157 (  3) -0.1136 (  7) -0.1301 (  8)  0.1082 (  9)
           0.1836 ( 12)  0.1836 ( 13) -0.1311 ( 16)  0.1086 ( 33)  0.1112 ( 34)
          -0.1189 ( 50) -0.1155 ( 54) -0.2024 ( 73)  0.1329 ( 74)  0.1048 ( 78)
          -0.1638 ( 81)  0.1118 ( 82)  0.1192 ( 85) -0.1396 ( 86)  0.2070 ( 87)
          -0.1584 ( 91)  0.1798 ( 92)  0.1565 ( 93) -0.1856 (117) -0.1794 (118)
          -0.1261 (121)  0.2384 (122) -0.1401 (124)  0.2051 (125)  0.1075 (128)
           0.1125 (129)  0.1588 (130) -0.1147 (134)
 CRD 54=  -0.1631 ( 14)  0.1562 ( 16) -0.1429 ( 44) -0.1429 ( 49)  0.1045 ( 51)
           0.1045 ( 60)  0.1007 ( 65)  0.1313 ( 72)  0.2365 ( 76)  0.1269 ( 83)
          -0.1840 ( 85) -0.1925 ( 86)  0.1113 ( 90) -0.1809 ( 92) -0.1142 ( 93)
           0.1180 ( 99)  0.1847 (100)  0.2380 (101) -0.1049 (102) -0.1226 (103)
          -0.1299 (106) -0.1217 (111) -0.1571 (114) -0.3495 (115)  0.1613 (117)
           0.1436 (118)  0.1895 (122)  0.1977 (125) -0.1863 (136)

 THE DETERMINANT OF THE G MATRIX IS 10**(   -12)


                     --------------------
                     INTERNAL COORDINATES
                     --------------------

                 - - ATOMS - -         COORDINATE      COORDINATE
 NO.   TYPE    I  J  K  L  M  N        (BOHR,RAD)       (ANG,DEG)
 ----------------------------------------------------------------
   1 STRETCH   1  7                     2.0612338       1.0907580
   2 STRETCH   1  2                     2.9297311       1.5503471
   3 STRETCH   1  8                     2.0563526       1.0881750
   4 STRETCH   1  4                     2.8862154       1.5273195
   5 STRETCH   2  3                     2.9235149       1.5470576
   6 STRETCH   2 10                     2.0533112       1.0865656
   7 STRETCH   2  9                     2.0532081       1.0865110
   8 STRETCH   3 12                     2.0608035       1.0905303
   9 STRETCH   3 11                     2.0519389       1.0858394
  10 STRETCH   3  5                     2.9220542       1.5462846
  11 STRETCH   4 13                     2.0414767       1.0803030
  12 STRETCH   4  5                     2.6731011       1.4145443
  13 STRETCH   4  5                     2.6731011       1.4145443
  14 STRETCH   4 17                     3.9306301       2.0800000
  15 STRETCH   5  6                     2.9018823       1.5356101
  16 STRETCH   5 18                     3.7983493       2.0100000
  17 STRETCH   6 15                     2.0514600       1.0855860
  18 STRETCH   6 14                     2.0576843       1.0888797
  19 STRETCH   6 16                     2.0504576       1.0850555
  20 STRETCH  17 18                     3.7416574       1.9800000
  21 STRETCH  17 20                     2.1782334       1.1526715
  22 STRETCH  17 19                     2.1770168       1.1520278
  23 BEND      1  2  3                  1.8287477     104.7795251
  24 BEND      1  4  5                  1.9456447     111.4772292
  25 BEND      1  4 17                  1.9452702     111.4557717
  26 BEND      1  4 13                  2.1289546     121.9801124
  27 BEND      1  2 10                  1.9590523     112.2454307
  28 BEND      1  4  5                  1.9456447     111.4772292
  29 BEND      1  2  9                  1.9219441     110.1192837
  30 BEND      2  3  5                  1.8220634     104.3965417
  31 BEND      2  3 11                  1.9775200     113.3035519
  32 BEND      2  1  4                  1.8121595     103.8290909
  33 BEND      2  1  7                  1.9288439     110.5146163
  34 BEND      2  3 12                  1.9237191     110.2209831
  35 BEND      2  1  8                  1.9571867     112.1385383
  36 BEND      3  2  9                  1.9175078     109.8651032
  37 BEND      3  2 10                  1.9510293     111.7857474
  38 BEND      3  5 18                  1.5869084      90.9231531
  39 BEND      3  5  6                  2.0862178     119.5314754
  40 BEND      3  5  4                  1.8844640     107.9718351
  41 BEND      3  5  4                  1.8844640     107.9718351
  42 BEND      4  5  6                  2.1167588     121.2813459
  43 BEND      4  1  7                  1.9100304     109.4366830
  44 BEND      4  5 18                  2.1901513     125.4864239
  45 BEND      4 17 19                  1.8531674     106.1786728
  46 BEND      4 17 20                  1.8529976     106.1689429
  47 BEND      4 17 18                  1.7041663      97.6415338
  48 BEND      4  5  6                  2.1167588     121.2813459
  49 BEND      4  5 18                  2.1901513     125.4864239
  50 BEND      4  1  8                  1.9799235     113.4412625
  51 BEND      5  4 17                  1.2574847      72.0485669
  52 BEND      5  4 13                  2.1232939     121.6557813
  53 BEND      5  4 13                  2.1232939     121.6557813
  54 BEND      5  3 11                  1.9852947     113.7490054
  55 BEND      5  3 12                  1.8644279     106.8238514
  56 BEND      5  6 14                  1.8945073     108.5472712
  57 BEND      5  6 15                  1.9329496     110.7498531
  58 BEND      5  6 16                  1.9427338     111.3104479
  59 BEND      5 18 17                  1.1229327      64.3393064
  60 BEND      5  4 17                  1.2574847      72.0485669
  61 BEND      6  5 18                  1.5294094      87.6287015
  62 BEND      7  1  8                  1.8757768     107.4740930
  63 BEND      9  2 10                  1.8855111     108.0318268
  64 BEND     11  3 12                  1.8873546     108.1374532
  65 BEND     13  4 17                  1.8448228     105.7005626
  66 BEND     14  6 16                  1.8985984     108.7816729
  67 BEND     14  6 15                  1.8923092     108.4213316
  68 BEND     15  6 16                  1.9017706     108.9634308
  69 BEND     18 17 19                  1.8311749     104.9185951
  70 BEND     18 17 20                  1.8539497     106.2234943
  71 BEND     19 17 20                  2.2847459     130.9062996
  72 TORSION   1  4  5 18               1.7512655     100.3401202
  73 TORSION   1  2  3  5              -0.4767457     -27.3155141
  74 TORSION   1  4  5  6              -2.5781321    -147.7160910
  75 TORSION   1  2  3 11              -2.6459008    -151.5989495
  76 TORSION   1  4  5  3              -0.0743404      -4.2593883
  77 TORSION   1  2  3 12               1.5197867      87.0773614
  78 TORSION   1  4 17 19               0.1153901       6.6113651
  79 TORSION   1  4 17 20               2.6035877     149.1745840
  80 TORSION   1  4 17 18              -1.7699567    -101.4110492
  81 TORSION   2  1  4 17               1.1407245      65.3586992
  82 TORSION   2  3  5 18              -1.8869484    -108.1141793
  83 TORSION   2  1  4 13              -2.9428593    -168.6134193
  84 TORSION   2  3  5  6               2.8638810     164.0882930
  85 TORSION   2  3  5  4               0.3469862      19.8808435
  86 TORSION   2  1  4  5              -0.2274516     -13.0320160
  87 TORSION   3  2  1  4               0.4306479      24.6743072
  88 TORSION   3  2  1  7              -1.6159049     -92.5845332
  89 TORSION   3  2  1  8               2.5747842     147.5242697
  90 TORSION   3  5  4 17              -1.9348947    -110.8613019
  91 TORSION   3  5  4 13               2.6426586     151.4131849
  92 TORSION   3  5  6 16               0.8443807      48.3794477
  93 TORSION   3  5  6 14              -1.2447192     -71.3171590
  94 TORSION   3  5  6 15               2.9629670     169.7655018
  95 TORSION   3  5 18 17               2.0931668     119.9296220
  96 TORSION   4 17 18  5              -0.0676157      -3.8740945
  97 TORSION   4  5 18 17               0.1212256       6.9457127
  98 TORSION   4  1  2 10               2.5513572     146.1819982
  99 TORSION   4  5  6 16              -3.0060414    -172.2334860
 100 TORSION   4  5  6 14               1.1880440      68.0699072
 101 TORSION   4  5  6 15              -0.8874551     -50.8474319
 102 TORSION   4  5  3 11               2.5111497     143.8782772
 103 TORSION   4  5  3 12              -1.6910463     -96.8898153
 104 TORSION   4  1  2  9              -1.6304832     -93.4198064
 105 TORSION   5  4 17 18               0.0910912       5.2191398
 106 TORSION   5  4  1  7               1.8321639     104.9752603
 107 TORSION   5  4 17 20              -1.8185498    -104.1952271
 108 TORSION   5  4 17 19               1.9764380     113.2415541
 109 TORSION   5 18 17 19              -1.9712034    -112.9416354
 110 TORSION   5 18 17 20               1.8412396     105.4952583
 111 TORSION   5  4  1  8              -2.3565455    -135.0201133
 112 TORSION   5  3  2  9               1.5873980      90.9512062
 113 TORSION   5  3  2 10              -2.6027160    -149.1246438
 114 TORSION   6  5  4 17               1.8444988     105.6819954
 115 TORSION   6  5  4 13               0.1388668       7.9564822
 116 TORSION   6  5 18 17              -2.1040085    -120.5508068
 117 TORSION   6  5  3 11              -1.2551408     -71.9142733
 118 TORSION   6  5  3 12               0.8258485      47.3176342
 119 TORSION   7  1  2  9               2.6061493     149.3213533
 120 TORSION   7  1  4 17              -3.0828453    -176.6340245
 121 TORSION   7  1  2 10               0.5048043      28.9231578
 122 TORSION   7  1  4 13              -0.8832438     -50.6061430
 123 TORSION   8  1  4 17              -0.9883695     -56.6293982
 124 TORSION   8  1  2 10              -1.5876918     -90.9680393
 125 TORSION   8  1  4 13               1.2112320      69.3984834
 126 TORSION   8  1  2  9               0.5136531      29.4301561
 127 TORSION   9  2  3 12              -2.6992550    -154.6559182
 128 TORSION   9  2  3 11              -0.5817571     -33.3322292
 129 TORSION  10  2  3 12              -0.6061837     -34.7317683
 130 TORSION  10  2  3 11               1.5113141      86.5919208
 131 TORSION  11  3  5 18               0.2772151      15.8832544
 132 TORSION  12  3  5 18               2.3582044     135.1151619
 133 TORSION  13  4 17 18               2.1648023     124.0340356
 134 TORSION  13  4 17 20               0.2551614      14.6196687
 135 TORSION  13  4 17 19              -2.2330362    -127.9435501
 136 TORSION  13  4  5 18              -1.8149209    -103.9873065
 137 TORSION  14  6  5 18              -2.8105894    -161.0349093
 138 TORSION  15  6  5 18               1.3970968      80.0477516
 139 TORSION  16  6  5 18              -0.7214895     -41.3383025
 140 TORSION  17  4  5 18              -0.1092889      -6.2617934

     ------------------------------------------
     THE POINT GROUP IS C1 , NAXIS= 0, ORDER= 1
     ------------------------------------------

     DIMENSIONS OF THE SYMMETRY SUBSPACES ARE
 A   =   48

 ..... DONE SETTING UP THE RUN .....
 STEP CPU TIME =     0.06 TOTAL CPU TIME =          0.1 (      0.0 MIN)
 TOTAL WALL CLOCK TIME=          0.1 SECONDS, CPU UTILIZATION IS    85.71%


          -----------------------------
          STATIONARY POINT LOCATION RUN
          -----------------------------

 OBTAINING INITIAL HESSIAN, HESS=CALC    

     ---------------------------------
     HESSIAN MATRIX CONTROL PARAMETERS
     ---------------------------------
     METHOD=ANALYTIC   NVIB  =       2   VIBSIZ= 0.01000
     RDHESS=       F   PURIFY=       F   PRTIFC=       F
     VIBANL=       F   DECOMP=       F   PROJCT=       F
     SCLFAC= 1.00000   PRTSCN=       F   NPRT  =       0
     PULCOR=       F   NPUN  =       0   REDOVB=       T
     HSSTYP=GENERAL 
 Old integral subroutine is used

     ------------------------------
     CPHF RESPONSE SOLUTION OPTIONS
     ------------------------------
     POLAR  =       F     NWORD  =       0
     CPHF   =AO      

          ********************
          1 ELECTRON INTEGRALS
          ********************
 ...... END OF ONE-ELECTRON INTEGRALS ......
 STEP CPU TIME =     0.02 TOTAL CPU TIME =          0.1 (      0.0 MIN)
 TOTAL WALL CLOCK TIME=          0.1 SECONDS, CPU UTILIZATION IS    88.89%

          -------------
          GUESS OPTIONS
          -------------
          GUESS =HUCKEL            NORB  =       0          NORDER=       0
          MIX   =       F          PRTMO =       F          PUNMO =       F
          TOLZ  = 1.0E-08          TOLE  = 1.0E-05
          SYMDEN=       F          PURIFY=       F

 INITIAL GUESS ORBITALS GENERATED BY HUCKEL   ROUTINE.
 HUCKEL GUESS REQUIRES     39252 WORDS.

 SYMMETRIES FOR INITIAL GUESS ORBITALS FOLLOW.   BOTH SET(S).
    27 ORBITALS ARE OCCUPIED (    7 CORE ORBITALS).
     8=A        9=A       10=A       11=A       12=A       13=A       14=A   
    15=A       16=A       17=A       18=A       19=A       20=A       21=A   
    22=A       23=A       24=A       25=A       26=A       27=A       28=A   
    29=A       30=A       31=A       32=A       33=A       34=A       35=A   
    36=A       37=A   
 ...... END OF INITIAL ORBITAL SELECTION ......
 STEP CPU TIME =     0.02 TOTAL CPU TIME =          0.1 (      0.0 MIN)
 TOTAL WALL CLOCK TIME=          0.1 SECONDS, CPU UTILIZATION IS    90.91%

                    ----------------------
                    AO INTEGRAL TECHNOLOGY
                    ----------------------
     S,P,L SHELL ROTATED AXIS INTEGRALS, REPROGRAMMED BY
        KAZUYA ISHIMURA (IMS) AND JOSE SIERRA (SYNSTAR).
     S,P,D,L SHELL ROTATED AXIS INTEGRALS PROGRAMMED BY
        KAZUYA ISHIMURA (INSTITUTE FOR MOLECULAR SCIENCE).
     S,P,D,F,G SHELL TO TOTAL QUARTET ANGULAR MOMENTUM SUM 5,
        ERIC PROGRAM BY GRAHAM FLETCHER (ELORET AND NASA ADVANCED
        SUPERCOMPUTING DIVISION, AMES RESEARCH CENTER).
     S,P,D,F,G,L SHELL GENERAL RYS QUADRATURE PROGRAMMED BY
        MICHEL DUPUIS (PACIFIC NORTHWEST NATIONAL LABORATORY).

          --------------------
          2 ELECTRON INTEGRALS
          --------------------

 THE -PK- OPTION IS OFF, THE INTEGRALS ARE NOT IN SUPERMATRIX FORM.
 STORING   15000 INTEGRALS/RECORD ON DISK, USING 12 BYTES/INTEGRAL.
 TWO ELECTRON INTEGRAL EVALUATION REQUIRES   89734 WORDS OF MEMORY.
 SCHWARZ INEQUALITY OVERHEAD:      1164 INTEGRALS, T=        0.00
 II,JST,KST,LST =  1  1  1  1 NREC =         1 INTLOC =    1
 II,JST,KST,LST =  2  1  1  1 NREC =         1 INTLOC =    2
 II,JST,KST,LST =  3  1  1  1 NREC =         1 INTLOC =   34
 II,JST,KST,LST =  4  1  1  1 NREC =         1 INTLOC =  140
 II,JST,KST,LST =  5  1  1  1 NREC =         1 INTLOC = 1358
 II,JST,KST,LST =  6  1  1  1 NREC =         1 INTLOC = 1929
 II,JST,KST,LST =  7  1  1  1 NREC =         1 INTLOC = 6786
 II,JST,KST,LST =  8  1  1  1 NREC =         1 INTLOC = 8470
 II,JST,KST,LST =  9  1  1  1 NREC =         2 INTLOC = 5904
 II,JST,KST,LST = 10  1  1  1 NREC =         2 INTLOC = 9822
 II,JST,KST,LST = 11  1  1  1 NREC =         4 INTLOC = 5278
 II,JST,KST,LST = 12  1  1  1 NREC =         4 INTLOC =11784
 II,JST,KST,LST = 13  1  1  1 NREC =         7 INTLOC =10813
 II,JST,KST,LST = 14  1  1  1 NREC =         8 INTLOC =10144
 II,JST,KST,LST = 15  1  1  1 NREC =         9 INTLOC =10733
 II,JST,KST,LST = 16  1  1  1 NREC =        10 INTLOC =12977
 II,JST,KST,LST = 17  1  1  1 NREC =        12 INTLOC = 1751
 II,JST,KST,LST = 18  1  1  1 NREC =        13 INTLOC = 7587
 II,JST,KST,LST = 19  1  1  1 NREC =        15 INTLOC =  314
 II,JST,KST,LST = 20  1  1  1 NREC =        16 INTLOC = 9995
 II,JST,KST,LST = 21  1  1  1 NREC =        18 INTLOC = 6503
 II,JST,KST,LST = 22  1  1  1 NREC =        20 INTLOC = 4794
 II,JST,KST,LST = 23  1  1  1 NREC =        22 INTLOC = 5393
 II,JST,KST,LST = 24  1  1  1 NREC =        24 INTLOC = 2971
 II,JST,KST,LST = 25  1  1  1 NREC =        34 INTLOC =13059
 II,JST,KST,LST = 26  1  1  1 NREC =        38 INTLOC =  373
 II,JST,KST,LST = 27  1  1  1 NREC =        41 INTLOC = 5746
 SCHWARZ INEQUALITY TEST SKIPPED        7799 INTEGRAL BLOCKS.
 TOTAL NUMBER OF NONZERO TWO-ELECTRON INTEGRALS =              658826
         44 INTEGRAL RECORDS WERE STORED ON DISK FILE  8.
  ...... END OF TWO-ELECTRON INTEGRALS .....
 STEP CPU TIME =     0.19 TOTAL CPU TIME =          0.3 (      0.0 MIN)
 TOTAL WALL CLOCK TIME=          0.3 SECONDS, CPU UTILIZATION IS    90.62%

          --------------------------
                 RHF SCF CALCULATION
          --------------------------

     NUCLEAR ENERGY =       304.1150226461
     MAXIT =   30     NPUNCH=    2
     EXTRAP=T  DAMP=F  SHIFT=F  RSTRCT=F  DIIS=F  DEM=F  SOSCF=T
     DENSITY MATRIX CONV=  1.00E-05
     SOSCF WILL OPTIMIZE     567 ORBITAL ROTATIONS, SOGTOL=   0.250
     MEMORY REQUIRED FOR RHF ITERS=     49068 WORDS.

 ITER EX DEM     TOTAL ENERGY        E CHANGE  DENSITY CHANGE     ORB. GRAD
   1  0  0     -255.8158972563  -255.8158972563   0.324032774   0.000000000
          ---------------START SECOND ORDER SCF---------------
   2  1  0     -256.1550120622    -0.3391148059   0.087549808   0.022655730
   3  2  0     -256.1706496482    -0.0156375859   0.037462577   0.008638459
   4  3  0     -256.1728322641    -0.0021826160   0.005033050   0.001027697
   5  4  0     -256.1728838187    -0.0000515546   0.000914264   0.000368760
   6  5  0     -256.1728873742    -0.0000035555   0.000587538   0.000120642
   7  6  0     -256.1728880254    -0.0000006511   0.000185411   0.000043986
   8  7  0     -256.1728880758    -0.0000000505   0.000039949   0.000010290
   9  8  0     -256.1728880824    -0.0000000066   0.000011230   0.000002721
  10  9  0     -256.1728880829    -0.0000000004   0.000003551   0.000000646
  11 10  0     -256.1728880829    -0.0000000000   0.000001222   0.000000251

          -----------------
          DENSITY CONVERGED
          -----------------
     TIME TO FORM FOCK OPERATORS=       0.1 SECONDS (       0.0 SEC/ITER)
     TIME TO SOLVE SCF EQUATIONS=       0.0 SECONDS (       0.0 SEC/ITER)

 FINAL RHF ENERGY IS     -256.1728880829 AFTER  11 ITERATIONS

          ------------
          EIGENVECTORS
          ------------

                      1          2          3          4          5
                  -11.1092   -11.0649   -11.0633   -11.0534   -11.0505
                     A          A          A          A          A   
    1  C  1  S   -0.000509  -0.000092  -0.003958   0.990416   0.054979
    2  C  1  S    0.000120  -0.000020  -0.000001   0.037584  -0.003489
    3  C  1  X    0.000023  -0.000018  -0.000076   0.000020   0.001627
    4  C  1  Y    0.000062   0.000001   0.000149  -0.000291   0.002318
    5  C  1  Z    0.000036   0.000020  -0.000129   0.000088   0.003055
    6  C  2  S   -0.000606  -0.000336  -0.011483  -0.054030   0.990430
    7  C  2  S    0.000092  -0.000028  -0.005971  -0.007618   0.036794
    8  C  2  X   -0.000155  -0.000053  -0.002238  -0.001455  -0.000077
    9  C  2  Y   -0.000118  -0.000018   0.003504  -0.002429  -0.000083
   10  C  2  Z    0.000008   0.000003  -0.000037  -0.003025  -0.000373
   11  C  3  S   -0.002753  -0.007951   0.991854   0.003332   0.012677
   12  C  3  S   -0.005463  -0.000171   0.037247   0.000497  -0.005149
   13  C  3  X   -0.003527   0.000011   0.000051  -0.000186   0.002398
   14  C  3  Y   -0.001215  -0.000013  -0.000152   0.000144  -0.003440
   15  C  3  Z   -0.001551   0.000047   0.000465  -0.000206   0.000152
   16  C  4  S    0.002345  -0.000439  -0.001102  -0.004886  -0.002128
   17  C  4  S   -0.006444   0.000124   0.000107  -0.005978  -0.000278
   18  C  4  X   -0.000491   0.000065   0.000051   0.004035   0.000265
   19  C  4  Y    0.004035  -0.000027   0.000028  -0.001389   0.000005
   20  C  4  Z    0.001701   0.000091  -0.000000   0.000374   0.000194
   21  C  5  S    0.992313   0.003798   0.003755   0.000549   0.000759
   22  C  5  S    0.034545  -0.005502  -0.005552   0.000206   0.000095
   23  C  5  X   -0.000870  -0.002812   0.003692  -0.000030   0.000097
   24  C  5  Y    0.001202   0.002915   0.001391   0.000070  -0.000130
   25  C  5  Z    0.001372  -0.001537   0.001558   0.000019   0.000080
   26  C  6  S   -0.002853   0.991915   0.007952   0.000099   0.000450
   27  C  6  S   -0.005436   0.037787   0.000452  -0.000020  -0.000069
   28  C  6  X    0.002632   0.000032  -0.000041  -0.000005   0.000065
   29  C  6  Y   -0.002777  -0.000099  -0.000013  -0.000034  -0.000029
   30  C  6  Z    0.001231   0.000213  -0.000051  -0.000002   0.000032
   31  H  7  S   -0.000008   0.000001   0.000056  -0.007006  -0.000315
   32  H  8  S   -0.000035   0.000006  -0.000085  -0.006941  -0.000262
   33  H  9  S    0.000031   0.000006   0.000133   0.000456  -0.007016
   34  H 10  S   -0.000098  -0.000011   0.000193   0.000508  -0.006975
   35  H 11  S    0.000055   0.000092  -0.006924  -0.000142   0.000032
   36  H 12  S   -0.000081  -0.000026  -0.007045  -0.000014  -0.000025
   37  H 13  S    0.000091  -0.000126  -0.000052   0.000132  -0.000099
   38  H 14  S   -0.000077  -0.007001  -0.000006   0.000006   0.000003
   39  H 15  S    0.000038  -0.006982  -0.000120  -0.000018  -0.000011
   40  H 16  S    0.000022  -0.006956  -0.000142  -0.000005  -0.000019
   41  B 17  S    0.000303  -0.000003   0.000003   0.000005   0.000010
   42  B 17  S   -0.001900   0.000046   0.000016   0.000052  -0.000043
   43  B 17  X    0.000797  -0.000035   0.000026   0.000060   0.000118
   44  B 17  Y    0.001854  -0.000026   0.000005   0.000011   0.000000
   45  B 17  Z   -0.000892   0.000000   0.000001   0.000016   0.000037
   46  H 18  S   -0.001229  -0.000167  -0.000055   0.000003   0.000023
   47  H 19  S    0.000024  -0.000022  -0.000004  -0.000063   0.000101
   48  H 20  S    0.000125   0.000063  -0.000029  -0.000049  -0.000044

                      6          7          8          9         10
                  -11.0283    -7.3790    -1.1071    -0.9863    -0.9316
                     A          A          A          A          A   
    1  C  1  S    0.005961   0.000024  -0.089300   0.097619   0.102852
    2  C  1  S   -0.005345   0.000090   0.233073  -0.271007  -0.296188
    3  C  1  X   -0.003898  -0.000066   0.027538   0.027437  -0.068212
    4  C  1  Y    0.001389   0.000044  -0.041725   0.024675  -0.014484
    5  C  1  Z   -0.000431   0.000126  -0.020538   0.032807  -0.041377
    6  C  2  S    0.001926   0.000018  -0.089799   0.114251  -0.067604
    7  C  2  S    0.000134   0.000028   0.233420  -0.317955   0.193693
    8  C  2  X   -0.000211  -0.000187   0.043525  -0.014597   0.005149
    9  C  2  Y    0.000016  -0.000026  -0.012400  -0.015318  -0.096227
   10  C  2  Z    0.000028   0.000025   0.026231  -0.026109  -0.047407
   11  C  3  S    0.001231   0.000017  -0.104559   0.025738  -0.149151
   12  C  3  S    0.000155   0.000006   0.275022  -0.069536   0.431071
   13  C  3  X    0.000068  -0.000001   0.024917   0.072167  -0.024051
   14  C  3  Y   -0.000163  -0.000049   0.045669  -0.042958  -0.008321
   15  C  3  Z   -0.000119   0.000001   0.027874   0.014327  -0.010183
   16  C  4  S    0.992122   0.000461  -0.110704  -0.016288   0.130735
   17  C  4  S    0.035833  -0.002591   0.281855   0.045823  -0.369272
   18  C  4  X    0.000037  -0.001346  -0.027819   0.070677   0.027868
   19  C  4  Y   -0.001761  -0.001056  -0.058477  -0.065291  -0.005592
   20  C  4  Z   -0.000670   0.001899  -0.043524  -0.008885   0.000189
   21  C  5  S   -0.001664   0.000390  -0.132428  -0.101238   0.002807
   22  C  5  S   -0.006768  -0.002138   0.353027   0.288887  -0.007086
   23  C  5  X    0.000828  -0.001065  -0.046757   0.075112  -0.053144
   24  C  5  Y   -0.003637  -0.001385   0.039770  -0.041651  -0.129521
   25  C  5  Z   -0.002595   0.001235   0.024818   0.049355  -0.077486
   26  C  6  S    0.000481   0.000005  -0.056098  -0.148043  -0.023051
   27  C  6  S    0.000244   0.000131   0.150211   0.413782   0.066157
   28  C  6  X   -0.000050   0.000050  -0.029547  -0.027791  -0.009433
   29  C  6  Y   -0.000010   0.000001   0.028968   0.030559  -0.016636
   30  C  6  Z   -0.000047   0.000006  -0.011917  -0.008997  -0.009691
   31  H  7  S   -0.000118  -0.000098   0.044579  -0.067788  -0.082990
   32  H  8  S   -0.000069  -0.000184   0.040460  -0.066205  -0.083967
   33  H  9  S    0.000010  -0.000195   0.045082  -0.077611   0.053361
   34  H 10  S   -0.000114  -0.000065   0.041789  -0.080251   0.059605
   35  H 11  S   -0.000105   0.000058   0.048757  -0.014240   0.128302
   36  H 12  S   -0.000024  -0.000069   0.056267  -0.013333   0.126676
   37  H 13  S   -0.006782  -0.000158   0.051160   0.019679  -0.109039
   38  H 14  S   -0.000077  -0.000047   0.030909   0.105644   0.019492
   39  H 15  S   -0.000027  -0.000319   0.028700   0.104172   0.008976
   40  H 16  S   -0.000100   0.000095   0.027688   0.100322   0.028450
   41  B 17  S    0.000388   0.990879  -0.017806  -0.010648   0.018052
   42  B 17  S   -0.002567   0.036327   0.033589   0.022030  -0.037511
   43  B 17  X    0.001341  -0.000205  -0.010693  -0.000460   0.009940
   44  B 17  Y   -0.000038   0.000380  -0.008708  -0.011245  -0.000533
   45  B 17  Z   -0.002099   0.000630   0.012145   0.007910  -0.019293
   46  H 18  S    0.000092  -0.002531   0.013393   0.016592   0.004495
   47  H 19  S    0.000315  -0.006326   0.009149   0.000744  -0.011542
   48  H 20  S    0.000305  -0.006369   0.007377   0.008483  -0.012594

                     11         12         13         14         15
                   -0.8806    -0.7676    -0.6862    -0.6468    -0.6195
                     A          A          A          A          A   
    1  C  1  S   -0.086661   0.105313  -0.032873  -0.013110   0.007711
    2  C  1  S    0.254581  -0.327110   0.104515   0.042851  -0.023457
    3  C  1  X   -0.081334  -0.003485  -0.111673   0.041566   0.214587
    4  C  1  Y    0.014137  -0.080915   0.006071   0.181205  -0.136216
    5  C  1  Z   -0.025604  -0.122302  -0.078224  -0.068705  -0.126400
    6  C  2  S   -0.084167  -0.123347   0.002306   0.015323   0.004973
    7  C  2  S    0.248102   0.385060  -0.006468  -0.050763  -0.012134
    8  C  2  X   -0.040181  -0.082045   0.052231   0.065119   0.277750
    9  C  2  Y    0.072039   0.018440   0.127659   0.071846  -0.016461
   10  C  2  Z    0.022862  -0.109458   0.054772  -0.145527  -0.012688
   11  C  3  S    0.065902   0.082355   0.049729  -0.017116  -0.009617
   12  C  3  S   -0.194246  -0.258069  -0.160126   0.056670   0.032722
   13  C  3  X   -0.062800  -0.059564   0.199328   0.056261   0.008531
   14  C  3  Y    0.021631   0.145308   0.115769  -0.047262   0.188944
   15  C  3  Z   -0.017524  -0.027019   0.074084  -0.220839  -0.004501
   16  C  4  S    0.073525  -0.036461   0.102052   0.010605  -0.024364
   17  C  4  S   -0.209580   0.109584  -0.333614  -0.026593   0.081586
   18  C  4  X   -0.050373   0.131091  -0.092341   0.062326  -0.201482
   19  C  4  Y    0.077030  -0.089011  -0.143384   0.151224   0.020875
   20  C  4  Z    0.035098  -0.039795  -0.206363  -0.077979  -0.123919
   21  C  5  S    0.069164  -0.025274  -0.115155   0.017793   0.057493
   22  C  5  S   -0.210089   0.079198   0.391627  -0.052490  -0.207184
   23  C  5  X    0.117158   0.084174  -0.041567   0.086291  -0.208850
   24  C  5  Y   -0.124932   0.142869  -0.050784   0.007106   0.139152
   25  C  5  Z    0.011780   0.066676  -0.068035  -0.171905  -0.065274
   26  C  6  S   -0.146371   0.008530   0.025480  -0.001446  -0.026522
   27  C  6  S    0.428429  -0.026084  -0.079210   0.004668   0.087154
   28  C  6  X    0.041995   0.016738  -0.110714   0.083371   0.151884
   29  C  6  Y   -0.046093   0.053871   0.075785  -0.011096  -0.217673
   30  C  6  Z    0.022292   0.011411  -0.095414  -0.099308   0.095925
   31  H  7  S    0.085165  -0.166874   0.028075  -0.062623  -0.162869
   32  H  8  S    0.089264  -0.142692   0.060550   0.154663  -0.098810
   33  H  9  S    0.077795   0.188724   0.008631   0.112487   0.018692
   34  H 10  S    0.089777   0.170115  -0.050409  -0.092578  -0.213507
   35  H 11  S   -0.057387  -0.115875  -0.131678   0.186105  -0.044941
   36  H 12  S   -0.056556  -0.145249  -0.136323  -0.082235  -0.091091
   37  H 13  S   -0.057979   0.052972  -0.310878   0.002484  -0.110416
   38  H 14  S    0.138618  -0.020565  -0.082363  -0.084214   0.120687
   39  H 15  S    0.138324   0.017248  -0.092554   0.045621   0.077792
   40  H 16  S    0.140394  -0.038863  -0.037507   0.066779   0.123702
   41  B 17  S    0.020146  -0.032918  -0.007861  -0.144412   0.017786
   42  B 17  S   -0.043527   0.076061   0.021235   0.361782  -0.045360
   43  B 17  X    0.012077  -0.007280  -0.015018  -0.007687  -0.048767
   44  B 17  Y    0.008697  -0.008517  -0.029039   0.023084   0.019386
   45  B 17  Z   -0.015634   0.020135  -0.021416  -0.002074  -0.017228
   46  H 18  S   -0.009735   0.007939   0.049205   0.100638  -0.036431
   47  H 19  S   -0.011192   0.027620   0.013778   0.205433   0.012993
   48  H 20  S   -0.011651   0.033454  -0.010403   0.185167  -0.057517

                     16         17         18         19         20
                   -0.5945    -0.5594    -0.5570    -0.5300    -0.4930
                     A          A          A          A          A   
    1  C  1  S   -0.001440  -0.011140  -0.012312   0.000424   0.002484
    2  C  1  S    0.006421   0.038034   0.041348   0.000940  -0.012219
    3  C  1  X   -0.074319  -0.058955  -0.031289   0.106431   0.006583
    4  C  1  Y   -0.159349  -0.072324   0.160889   0.183708   0.152679
    5  C  1  Z    0.063511   0.103708  -0.109353  -0.287709  -0.002899
[...]
 18   H            X -0.00640596  0.01005571 -0.11362474 -0.02325851 -0.00677709
                   Y  0.00286381  0.00379054  0.79231459  0.13916799  0.00435874
                   Z  0.01146341 -0.00397995  0.50712137  0.09584182 -0.00321177
 19   H            X  0.00281716  0.00648409  0.08067473 -0.36250521  0.36492036
                   Y -0.00776906  0.00352920 -0.09463716  0.39581832 -0.39406412
                   Z -0.00537752  0.00255662  0.06610869 -0.39789641  0.39283275
 20   H            X  0.00147386  0.00230164 -0.12756081  0.62648321  0.60353139
                   Y -0.00553666  0.00166834 -0.05043443  0.17766936  0.16987656
                   Z -0.00946107 -0.01327802 -0.05350483  0.18814209  0.18642330

 TRANS. SAYVETZ    X -0.00000008  0.00000028  0.00000105  0.00000011  0.00000003
                   Y -0.00000029 -0.00000005  0.00000098 -0.00000028 -0.00000005
                   Z -0.00000043  0.00000001 -0.00000071 -0.00000011  0.00000004
               TOTAL  0.00000053  0.00000029  0.00000160  0.00000032  0.00000007

   ROT. SAYVETZ    X -0.00000410 -0.00000535 -0.00000790 -0.00001028  0.00000754
                   Y -0.00000306  0.00000531 -0.00003792 -0.00000841  0.00000495
                   Z  0.00000132 -0.00000265  0.00005552  0.00001297 -0.00000492
               TOTAL  0.00000529  0.00000799  0.00006769  0.00001857  0.00001028

                           51          52          53          54          55
       FREQUENCY:      3573.61     3607.36     3611.17     3633.55     3730.24  
        SYMMETRY:         A           A           A           A           A   
    REDUCED MASS:      1.03892     1.06739     1.06684     1.06843     1.11044
    IR INTENSITY:      0.01099     0.08408     0.01256     0.01563     0.01570

  1   C            X  0.00007233  0.03492846 -0.00316701 -0.00238152 -0.01491167
                   Y -0.00011220 -0.03872461  0.00313179  0.00335889 -0.06841954
                   Z -0.00011432 -0.04765004  0.00375774  0.00785652  0.05481265
  2   C            X  0.00011417 -0.00569816  0.00683385 -0.05630000  0.00563660
                   Y  0.00001657  0.00250457  0.00151946  0.01264949  0.00354407
                   Z  0.00005427 -0.00055667  0.00357620 -0.04070890 -0.00454447
  3   C            X -0.00002499 -0.00151216 -0.02061799 -0.00105087  0.00563882
                   Y -0.00054315 -0.00607860 -0.06692988 -0.00946827  0.00173872
                   Z  0.00012540 -0.00038078 -0.00523373  0.00182649 -0.01857964
  4   C            X -0.00001406 -0.00052377  0.00012002 -0.00020255  0.00368237
                   Y -0.00030101  0.00193902 -0.00012708 -0.00020736  0.00277273
                   Z -0.00006430  0.00190361 -0.00035012 -0.00057124  0.00568795
  5   C            X  0.00207776 -0.00028281  0.00146546  0.00055176 -0.00027084
                   Y -0.00167067  0.00011108  0.00052508 -0.00031509 -0.00010320
                   Z  0.00053554  0.00011011  0.00116299  0.00020069  0.00011160
  6   C            X -0.02821130  0.00014493  0.00036488  0.00001533 -0.00007613
                   Y  0.03844688 -0.00006888 -0.00008391  0.00014731 -0.00000272
                   Z -0.02099355  0.00005326 -0.00018210 -0.00005964  0.00006547
  7   H            X -0.00059654 -0.35372487  0.02863492  0.04248817  0.24104877
                   Y -0.00030885 -0.11429873  0.00898183  0.01426974  0.07387564
                   Z  0.00144308  0.68337374 -0.05621996 -0.07600078 -0.46363377
  8   H            X -0.00013843 -0.04147049  0.00361497  0.00129203 -0.06115313
                   Y  0.00175402  0.53623986 -0.04045329 -0.03601186  0.72186839
                   Z -0.00056393 -0.14547772  0.01146315  0.01010000 -0.18581439
  9   H            X  0.00008085 -0.00252787  0.00263794 -0.04584682 -0.00446885
                   Y  0.00046937 -0.01743033  0.03117576 -0.28727853 -0.02252786
                   Z -0.00093613  0.04376188 -0.05679715  0.58466817  0.03914199
 10   H            X -0.00139262  0.07177175 -0.09184941  0.66499616 -0.06003873
                   Y -0.00040851  0.01424254 -0.02111784  0.15044555 -0.01189088
                   Z  0.00030385 -0.01458984  0.01718013 -0.13715119  0.01236583
 11   H            X -0.00046441 -0.00719994 -0.07040492 -0.00699060 -0.01991774
                   Y  0.00067990  0.02133700  0.22241318  0.01683058  0.06588016
                   Z  0.00190354  0.04876259  0.51515237  0.04074943  0.14592470
 12   H            X  0.00221312  0.02754015  0.30407017  0.04064441 -0.04839037
                   Y  0.00344788  0.04717645  0.52959227  0.06475862 -0.08537071
                   Z -0.00297399 -0.04223108 -0.46929761 -0.05871228  0.07455123
 13   H            X  0.00184350 -0.01412146  0.00323054  0.00743997 -0.04566865
                   Y  0.00119712 -0.00932917  0.00249852  0.00356493 -0.02246900
                   Z  0.00276229 -0.02070996  0.00588897  0.01009977 -0.06695963
 14   H            X -0.23393772  0.00057314  0.00052812 -0.00052221  0.00012643
                   Y -0.30847259  0.00084698  0.00051077 -0.00066503  0.00017338
                   Z  0.49950750 -0.00127979 -0.00059731  0.00110345 -0.00027990
 15   H            X  0.43890618 -0.00129243 -0.00427333  0.00011821  0.00058250
                   Y  0.23381017 -0.00079841 -0.00177538  0.00004945  0.00021948
                   Z  0.13645336 -0.00040316 -0.00150105  0.00003787  0.00019091
 16   H            X  0.10242582 -0.00019055 -0.00096365  0.00001496 -0.00013444
                   Y -0.35555236  0.00086936  0.00285344 -0.00032499  0.00022043
                   Z -0.39690020  0.00090739  0.00317933 -0.00046639 -0.00007381
 17   B            X  0.00009563 -0.00031470  0.00023507  0.00001468  0.00023099
                   Y  0.00005345  0.00010231 -0.00021127  0.00017740 -0.00024276
                   Z  0.00011286  0.00013400 -0.00009902 -0.00017279 -0.00009520
 18   H            X -0.00020083  0.00030301  0.00200187  0.00016175  0.00049373
                   Y -0.00311259  0.00049198  0.00441571  0.00027761  0.00179079
                   Z  0.00106880 -0.00016881  0.00087471 -0.00001845 -0.00039690
 19   H            X  0.00048121  0.00035975 -0.00114487  0.00293412 -0.00054084
                   Y -0.00044784 -0.00046475  0.00078152 -0.00122922  0.00086158
                   Z  0.00054068  0.00049759 -0.00081912  0.00191480 -0.00053043
 20   H            X -0.00085326  0.00126049 -0.00003804 -0.00000774 -0.00087996
                   Y -0.00033684  0.00005172  0.00023227 -0.00003020  0.00002557
                   Z -0.00026464  0.00000478  0.00005816  0.00010548 -0.00058958

 TRANS. SAYVETZ    X -0.00000044 -0.00000000  0.00000033 -0.00000007 -0.00000005
                   Y  0.00000086 -0.00000054 -0.00000013 -0.00000028 -0.00000010
                   Z -0.00000054 -0.00000028  0.00000021  0.00000029  0.00000001
               TOTAL  0.00000110  0.00000061  0.00000042  0.00000041  0.00000011

   ROT. SAYVETZ    X -0.00000089  0.00000182 -0.00000295  0.00000041  0.00000028
                   Y -0.00000029 -0.00000038  0.00000226  0.00000114 -0.00000018
                   Z  0.00000048  0.00000072 -0.00000080 -0.00000060 -0.00000045
               TOTAL  0.00000105  0.00000199  0.00000380  0.00000135  0.00000056

                           56          57          58          59          60
       FREQUENCY:      3732.56     3739.33     3746.26     3751.94     3771.74  
        SYMMETRY:         A           A           A           A           A   
    REDUCED MASS:      1.11060     1.09741     1.10786     1.11134     1.11062
    IR INTENSITY:      0.00794     0.16761     0.03179     0.00624     0.03675

  1   C            X  0.00291004  0.00201477  0.00015542  0.00205172  0.00003722
                   Y  0.01441281 -0.00896790 -0.00017351  0.00607209  0.00000080
                   Z -0.01076858  0.00509686  0.00005464 -0.00633370  0.00001745
  2   C            X -0.00925206  0.00019753 -0.00124597  0.05498324  0.00004216
                   Y -0.00445854 -0.00082705 -0.00085993  0.03702176  0.00005221
                   Z  0.00791816  0.00201690  0.00147959 -0.06239767 -0.00001982
  3   C            X  0.02475586 -0.00154185  0.00054318  0.00280233  0.00013161
                   Y  0.00461986  0.00051710  0.00043222  0.00154768 -0.00028066
                   Z -0.08506473  0.00562228 -0.00185860 -0.00891333  0.00037282
  4   C            X -0.00320833 -0.04570636 -0.00251047 -0.00194939 -0.00029815
                   Y -0.00202702 -0.02607132 -0.00128272 -0.00112170  0.00014108
                   Z -0.00506045 -0.06682929 -0.00352521 -0.00272126 -0.00028940
  5   C            X  0.00102013  0.00000853 -0.00035377 -0.00010230  0.00022547
                   Y  0.00070558  0.00413986  0.00105833  0.00045043  0.00007239
                   Z  0.00051827  0.00126362 -0.00029008 -0.00008484  0.00024634
  6   C            X -0.00170235 -0.00232151  0.05370546  0.00098233 -0.04733463
                   Y -0.00035821 -0.00067677  0.01085947  0.00016591 -0.06418267
                   Z  0.00188135  0.00389567 -0.07198505 -0.00132004 -0.04538528
  7   H            X -0.04727437  0.01458325  0.00010951 -0.03096120 -0.00008353
                   Y -0.01453378  0.00574727 -0.00001157 -0.00685622 -0.00000371
                   Z  0.09013395 -0.03161131 -0.00032142  0.06492811  0.00009631
  8   H            X  0.01296202 -0.00917477 -0.00034510  0.00435166 -0.00007685
                   Y -0.14835558  0.09295887  0.00240055 -0.06664770  0.00033361
                   Z  0.03874187 -0.02418631 -0.00057695  0.01694172 -0.00005102
  9   H            X  0.00761496  0.00094943  0.00105601 -0.04088415 -0.00007949
                   Y  0.03051251  0.00986377  0.00692039 -0.30053380 -0.00009825
                   Z -0.06606567 -0.02081147 -0.01435440  0.61510678  0.00033486
 10   H            X  0.09615923  0.00442526  0.01375901 -0.60477666  0.00008693
                   Y  0.02219078  0.00105402  0.00313823 -0.13498930 -0.00008777
                   Z -0.01839019 -0.00057753 -0.00267975  0.11944956  0.00000979
 11   H            X -0.08886016  0.00655655 -0.00149159 -0.00998212  0.00038565
                   Y  0.30126446 -0.02050072  0.00586955  0.03009786 -0.00045572
                   Z  0.67329517 -0.04484984  0.01335372  0.06710341 -0.00108424
 12   H            X -0.21004934  0.01148166 -0.00587392 -0.02678754  0.00080687
                   Y -0.36923310  0.02018565 -0.01024390 -0.05458626  0.00128104
                   Z  0.32218852 -0.01787604  0.00891250  0.04383356 -0.00127928
 13   H            X  0.04018426  0.51217967  0.02646134  0.01972454  0.00156795
                   Y  0.02085084  0.26215783  0.01339854  0.01039610  0.00092885
                   Z  0.05775035  0.74558657  0.03892038  0.02897463  0.00247333
 14   H            X  0.00716833  0.01414924 -0.26507756 -0.00475132  0.03720454
                   Y  0.00910986  0.01850095 -0.34752581 -0.00642876  0.04769874
                   Z -0.01503907 -0.02996800  0.55996218  0.01020765 -0.08413682
 15   H            X  0.00928876  0.01003630 -0.26968922 -0.00509300  0.62901603
                   Y  0.00492300  0.00521656 -0.14423505 -0.00267728  0.33574209
                   Z  0.00310522  0.00332341 -0.08933053 -0.00169486  0.19608287
 16   H            X  0.00242040  0.00524272 -0.09645970 -0.00172731 -0.10783036
                   Y -0.00938852 -0.01855108  0.35361790  0.00640807  0.37869632
                   Z -0.01026788 -0.01930274  0.38815180  0.00716551  0.42349483
 17   B            X -0.00021287 -0.00057086 -0.00004852 -0.00025857  0.00011595
                   Y -0.00010688  0.00072160 -0.00008946  0.00017878 -0.00010473
                   Z  0.00001224  0.00138166  0.00020017 -0.00010771 -0.00001532
 18   H            X -0.00067674 -0.00338306 -0.00055305 -0.00026842 -0.00008212
                   Y  0.00044406 -0.00560403 -0.00176879 -0.00069528  0.00178257
                   Z  0.00207604  0.00573038  0.00198433  0.00031740  0.00047750
 19   H            X -0.00023586 -0.00005198 -0.00053727  0.00292634  0.00010869
                   Y  0.00006138  0.00075818 -0.00011625 -0.00100675 -0.00008452
                   Z  0.00002165  0.00121645  0.00011814  0.00179951  0.00017989
 20   H            X  0.00069766  0.00301723  0.00033136  0.00131411 -0.00033247
                   Y -0.00021065 -0.00000739  0.00006198  0.00004466 -0.00020842
                   Z  0.00078907  0.00088164  0.00007729  0.00067503  0.00006593

 TRANS. SAYVETZ    X  0.00000013  0.00000044  0.00000006  0.00000009 -0.00000001
                   Y  0.00000010  0.00000032 -0.00000002  0.00000001 -0.00000008
                   Z  0.00000001 -0.00000001  0.00000001  0.00000003 -0.00000008
               TOTAL  0.00000016  0.00000054  0.00000006  0.00000009  0.00000011

   ROT. SAYVETZ    X -0.00000009  0.00000105  0.00000096  0.00000077  0.00000094
                   Y  0.00000024  0.00000171  0.00000037 -0.00000098 -0.00000021
                   Z -0.00000063 -0.00000181  0.00000011  0.00000014 -0.00000060
               TOTAL  0.00000068  0.00000271  0.00000103  0.00000126  0.00000113

 REFERENCE ON SAYVETZ CONDITIONS - A. SAYVETZ, J.CHEM.PHYS., 7, 383-389(1939).

 NOTE - THE MODES J,K ARE ORTHONORMALIZED ACCORDING TO
 SUM ON I   M(I) * (X(I,J)*X(I,K) + Y(I,J)*Y(I,K) + Z(I,J)*Z(I,K)) = DELTA(J,K)

  MODE FREQ(CM**-1)  SYMMETRY  RED. MASS  IR INTENS.
     1     696.786    A        1.831079    3.791411
     2       2.948    A        2.709986    0.124563
     3       2.009    A        3.202418    0.022458
     4       1.276    A        3.011564    0.046491
     5       0.022    A        4.807244    0.000007
     6       0.030    A        4.805551    0.000007
     7       0.090    A        4.818875    0.000203
     8     192.779    A        1.771740    0.005781
     9     214.684    A        1.034687    0.002579
    10     253.389    A        1.996533    0.096181
    11     326.332    A        2.202335    0.117719
    12     365.081    A        2.194410    0.197351
    13     438.489    A        2.243983    0.244131
    14     521.101    A        1.293698    0.026593
    15     599.801    A        3.161266    1.133275
    16     675.388    A        2.716281    0.027105
    17     750.660    A        2.207224    0.059288
    18     884.328    A        1.958753    0.039301
    19     950.998    A        1.671773    0.216555
    20    1014.704    A        2.209446    0.043278
    21    1045.865    A        1.498132    0.185037
    22    1053.522    A        1.463944    0.037103
    23    1092.661    A        2.149524    0.014917
    24    1132.397    A        1.727561    0.032372
    25    1173.487    A        1.322642    0.029932
    26    1211.875    A        1.344908    0.293983
    27    1240.914    A        1.380238    0.781217
    28    1253.767    A        1.401585    0.090204
    29    1322.919    A        1.790490    0.137039
    30    1376.444    A        1.277319    0.663213
    31    1391.002    A        1.718081    0.078931
    32    1459.846    A        1.166085    2.740600
    33    1473.294    A        1.231428    0.046484
    34    1486.067    A        1.332077    0.053813
    35    1504.924    A        1.393537    0.063308
    36    1532.083    A        1.104480    0.594744
    37    1544.036    A        1.087678    0.044178
    38    1621.920    A        1.797643    0.063029
    39    1626.751    A        1.889074    0.017763
    40    1635.404    A        1.791301    0.080248
    41    1709.002    A        1.301251    0.025565
    42    1775.956    A        1.996962    0.203505
    43    1796.879    A        1.095484    0.026718
    44    1800.552    A        1.072035    0.086488
    45    1812.298    A        1.395255    0.029108
    46    1817.844    A        1.125616    0.003594
    47    1833.864    A        1.122324    0.011806
    48    2893.250    A        1.058811    0.808006
    49    3159.975    A        1.063586    0.453010
    50    3310.874    A        1.133962    0.474589
    51    3573.613    A        1.038917    0.010987
    52    3607.365    A        1.067387    0.084085
    53    3611.170    A        1.066835    0.012562
    54    3633.547    A        1.068433    0.015632
    55    3730.238    A        1.110440    0.015698
    56    3732.563    A        1.110603    0.007941
    57    3739.330    A        1.097413    0.167613
    58    3746.256    A        1.107856    0.031794
    59    3751.940    A        1.111339    0.006237
    60    3771.739    A        1.110622    0.036749

     -------------------------------
     THERMOCHEMISTRY AT T=  298.15 K
     -------------------------------

 USING IDEAL GAS, RIGID ROTOR, HARMONIC NORMAL MODE APPROXIMATIONS.
 P=  1.01325E+05 PASCAL.
 ALL FREQUENCIES ARE SCALED BY   1.00000
 THE MOMENTS OF INERTIA ARE (IN AMU*BOHR**2)
            462.51800           740.96730           909.39440
 THE ROTATIONAL SYMMETRY NUMBER IS  1.0
 THE ROTATIONAL CONSTANTS ARE (IN GHZ)
      3.89842     2.43342     1.98274
   1 IMAGINARY FREQUENCY VIBRATION(S) IS(ARE) EXCLUDED
     FROM THE FOLLOWING THERMOCHEMICAL ANALYSIS.
      8 -     60 VIBRATIONAL MODES ARE USED IN THERMOCHEMISTRY.
 THE HARMONIC ZERO POINT ENERGY IS (SCALED BY   1.000)
        0.212269 HARTREE/MOLECULE    46587.585232 CM**-1/MOLECULE 
      133.200724 KCAL/MOL              557.311829 KJ/MOL

               Q               LN Q
 ELEC.     1.00000E+00       0.000000
 TRANS.    3.70351E+07      17.427377
 ROT.      1.99840E+05      12.205270
 VIB.      8.34011E+00       2.121076
 TOT.      6.17258E+13      31.753723

              E         H         G         CV        CP        S
           KJ/MOL    KJ/MOL    KJ/MOL   J/MOL-K   J/MOL-K   J/MOL-K
 ELEC.      0.000     0.000     0.000     0.000     0.000     0.000
 TRANS.     3.718     6.197   -43.201    12.472    20.786   165.684
 ROT.       3.718     3.718   -30.256    12.472    12.472   113.951
 VIB.     566.676   566.676   552.054    76.347    76.347    49.042
 TOTAL    574.113   576.592   478.596   101.290   109.605   328.678
 VIB. THERMAL CORRECTION E(T)-E(0) = H(T)-H(0) =      9363.940 J/MOL

              E         H         G         CV        CP        S
         KCAL/MOL  KCAL/MOL  KCAL/MOL CAL/MOL-K CAL/MOL-K CAL/MOL-K
 ELEC.      0.000     0.000     0.000     0.000     0.000     0.000
 TRANS.     0.889     1.481   -10.325     2.981     4.968    39.600
 ROT.       0.889     0.889    -7.231     2.981     2.981    27.235
 VIB.     135.439   135.439   131.944    18.247    18.247    11.721
 TOTAL    137.216   137.809   114.387    24.209    26.196    78.556
 VIB. THERMAL CORRECTION E(T)-E(0) = H(T)-H(0) =      2238.035 CAL/MOL
 ......END OF NORMAL COORDINATE ANALYSIS......
 STEP CPU TIME =     0.01 TOTAL CPU TIME =         76.9 (      1.3 MIN)
 TOTAL WALL CLOCK TIME=         77.2 SECONDS, CPU UTILIZATION IS    99.59%
               580000  WORDS OF DYNAMIC MEMORY USED
 EXECUTION OF GAMESS TERMINATED NORMALLY Sun Nov  7 16:37:49 2021
 DDI: 263640 bytes (0.3 MB / 0 MWords) used by master data server.

 ----------------------------------------
 CPU timing information for all processes
 ========================================
 0: 75.599 + 1.307 = 76.906
 ----------------------------------------
 ddikick.x: exited gracefully.
----- accounting info -----
Files used on the master node chemcompute-node-0.novalocal were:
-rw-r--r--. 1 chemcomp chemcomp     1553 Nov  7 16:36 /scratch/302676/337752.F05
-rw-rw-r--. 1 chemcomp chemcomp  8100720 Nov  7 16:37 /scratch/302676/337752.F08
-rw-rw-r--. 1 chemcomp chemcomp 85196800 Nov  7 16:37 /scratch/302676/337752.F10
-rw-rw-r--. 1 chemcomp chemcomp   564960 Nov  7 16:37 /scratch/302676/337752.F18
Sun Nov  7 16:37:52 UTC 2021
0.117u 0.137s 1:20.82 0.2%	0+0k 8+224io 0pf+0w
Finishing Up...
Looking for IR data...
Looking for Raman data...
vibramans not found
Looking for thermodynamics data...
Looking for UV-Vis data...
302676
